/*--------------------------------*- C++ -*----------------------------------*\
  =========                 |
  \\      /  F ield         | OpenFOAM: The Open Source CFD Toolbox
   \\    /   O peration     | Website:  https://openfoam.org
    \\  /    A nd           | Version:  7
     \\/     M anipulation  |
\*---------------------------------------------------------------------------*/
FoamFile
{
    version     2.0;
    format      ascii;
    class       volScalarField;
    location    "0.3";
    object      p;
}
// * * * * * * * * * * * * * * * * * * * * * * * * * * * * * * * * * * * * * //

dimensions      [0 2 -2 0 0 0 0];

internalField   nonuniform List<scalar> 
303246
(
0.181332
0.181036
0.180479
0.179721
0.178843
0.177935
0.177091
0.176394
0.17593
0.175667
0.175667
0.17593
0.176393
0.177091
0.177935
0.178843
0.179721
0.180478
0.181036
0.181331
0.181145
0.180861
0.180324
0.179597
0.178757
0.177889
0.177085
0.176426
0.176045
0.175731
0.17573
0.176044
0.176425
0.177085
0.177889
0.178757
0.179597
0.180324
0.18086
0.181145
0.18081
0.18055
0.180061
0.179403
0.178648
0.177865
0.177145
0.176542
0.176227
0.176054
0.176054
0.176227
0.176542
0.177144
0.177865
0.178647
0.179402
0.18006
0.180549
0.18081
0.180396
0.180178
0.179774
0.179238
0.178637
0.178001
0.17745
0.176911
0.17669
0.176701
0.1767
0.176689
0.17691
0.177449
0.178001
0.178636
0.179237
0.179773
0.180177
0.180396
0.179989
0.179838
0.17957
0.179236
0.17888
0.1785
0.177978
0.177695
0.177588
0.177972
0.177908
0.177893
0.177695
0.177977
0.178499
0.178879
0.179235
0.179569
0.179837
0.179988
0.179672
0.179622
0.179561
0.179534
0.179616
0.17926
0.179055
0.179012
0.179613
0.18053
0.180214
0.180162
0.179001
0.17896
0.179259
0.179615
0.179533
0.17956
0.179621
0.179671
0.17951
0.179602
0.179843
0.180418
0.180949
0.180994
0.181474
0.180515
0.181461
0.191558
0.183154
0.188899
0.180788
0.180521
0.181207
0.180948
0.180416
0.179841
0.179601
0.179509
0.179513
0.179769
0.180367
0.181501
0.183294
0.184527
0.184687
0.182764
0.526173
0.183281
0.185227
0.183292
0.181499
0.180365
0.179768
0.179512
0.179649
0.180113
0.181212
0.18307
0.185419
0.190759
0.195185
0.5431
0.670526
0.641484
0.629278
0.589586
0.194033
0.187924
0.183068
0.18121
0.180112
0.179647
0.179782
0.180435
0.18175
0.184223
0.188374
0.196196
0.22015
0.668663
0.749912
0.749926
0.718341
0.660656
0.21382
0.19135
0.18422
0.181747
0.180433
0.179781
0.179782
0.180436
0.18175
0.184224
0.188989
0.197698
0.220534
0.533668
0.639215
0.749913
0.74991
0.750725
0.640185
0.576947
0.215738
0.19211
0.18422
0.181748
0.180434
0.179781
0.17965
0.180114
0.181213
0.183072
0.187193
0.194655
0.219012
0.629789
0.717922
0.74827
0.722012
0.59349
0.209211
0.189757
0.183069
0.181211
0.180113
0.179649
0.179515
0.179771
0.180368
0.181503
0.183297
0.18706
0.191221
0.589241
0.656648
0.637518
0.593466
0.60941
0.188291
0.183294
0.181501
0.180367
0.17977
0.179514
0.179512
0.179604
0.179845
0.18042
0.180953
0.182328
0.182373
0.181978
0.571403
0.182151
0.182056
0.180952
0.180419
0.179844
0.179604
0.179512
0.179675
0.179625
0.179564
0.179537
0.179619
0.179264
0.179926
0.17981
0.18105
0.188019
0.182869
0.184943
0.179701
0.179066
0.179263
0.17962
0.179537
0.179564
0.179625
0.179675
0.179992
0.179841
0.179573
0.179239
0.178883
0.178504
0.177983
0.1777
0.178466
0.178776
0.178616
0.178403
0.177703
0.177986
0.178506
0.178884
0.17924
0.179574
0.179842
0.179993
0.1804
0.180182
0.179777
0.179242
0.178641
0.178006
0.177455
0.176916
0.176695
0.176707
0.176707
0.176696
0.176918
0.177457
0.178007
0.178642
0.179243
0.179778
0.180183
0.180401
0.180814
0.180553
0.180065
0.179406
0.178652
0.17787
0.17715
0.176547
0.176233
0.17606
0.176061
0.176233
0.176549
0.177151
0.177871
0.178653
0.179408
0.180066
0.180555
0.180815
0.181149
0.180864
0.180328
0.179601
0.178762
0.177894
0.177091
0.176431
0.176051
0.175737
0.175737
0.176051
0.176433
0.177092
0.177895
0.178763
0.179603
0.18033
0.180866
0.18115
0.181336
0.18104
0.180483
0.179725
0.178848
0.17794
0.177096
0.176399
0.175936
0.175673
0.175673
0.175937
0.176401
0.177098
0.177942
0.178849
0.179727
0.180484
0.181042
0.181337
0.176693
0.176596
0.176418
0.176183
0.17592
0.175657
0.17542
0.175231
0.175117
0.175055
0.175055
0.175117
0.175231
0.17542
0.175656
0.175919
0.176182
0.176417
0.176596
0.176693
0.176697
0.176613
0.176461
0.17626
0.176038
0.175813
0.17561
0.175432
0.175297
0.175267
0.175267
0.175297
0.175432
0.17561
0.175813
0.176037
0.17626
0.17646
0.176613
0.176696
0.176722
0.176667
0.176567
0.17644
0.176301
0.176155
0.17601
0.175889
0.175883
0.17584
0.17584
0.175883
0.175889
0.17601
0.176155
0.176301
0.176439
0.176567
0.176666
0.176722
0.1768
0.176789
0.176774
0.176764
0.176763
0.176721
0.176735
0.176586
0.176507
0.176615
0.176615
0.176507
0.176586
0.176735
0.17672
0.176762
0.176764
0.176774
0.176788
0.176799
0.17696
0.177013
0.177121
0.177285
0.17746
0.177643
0.177465
0.177397
0.177291
0.177509
0.17744
0.177542
0.177397
0.177465
0.177643
0.17746
0.177284
0.177121
0.177012
0.176959
0.177221
0.177359
0.177637
0.178018
0.178538
0.178511
0.178885
0.178683
0.178771
0.179113
0.178984
0.178869
0.178532
0.178722
0.178511
0.178537
0.178017
0.177636
0.177359
0.177221
0.177582
0.177832
0.178331
0.179144
0.17986
0.180536
0.180823
0.180004
0.180043
0.181189
0.180671
0.181079
0.179909
0.179982
0.180588
0.17986
0.179143
0.17833
0.177831
0.177581
0.177996
0.178366
0.179167
0.180358
0.181792
0.183008
0.183357
0.182005
0.422588
0.424363
0.444722
0.182421
0.183488
0.181791
0.180357
0.179167
0.178365
0.177996
0.178404
0.178896
0.180102
0.181672
0.183587
0.1869
0.188947
0.334491
0.406104
0.418115
0.465671
0.404205
0.188541
0.185195
0.181671
0.180101
0.178895
0.178403
0.178651
0.179212
0.180606
0.182646
0.185547
0.19062
0.19661
0.449551
0.406416
-0.232061
-0.232037
0.527988
0.451237
0.195191
0.187721
0.182644
0.180605
0.179212
0.178651
0.178651
0.179213
0.180606
0.182646
0.1859
0.191345
0.198408
0.425256
0.418579
-0.23203
-0.232035
0.548457
0.446948
0.453541
0.196723
0.188198
0.182644
0.180605
0.179212
0.178651
0.178405
0.178897
0.180103
0.181674
0.1848
0.188915
0.195864
0.465944
0.526741
0.546799
0.614133
0.457164
0.193745
0.18626
0.181672
0.180102
0.178897
0.178404
0.177998
0.178367
0.179169
0.18036
0.181795
0.184609
0.187082
0.403989
0.446994
0.445729
0.455962
0.459002
0.185031
0.181794
0.180359
0.179169
0.178368
0.177998
0.177584
0.177834
0.178334
0.179147
0.179864
0.181428
0.181469
0.181349
0.452235
0.180825
0.180568
0.17986
0.179145
0.178333
0.177835
0.177584
0.177224
0.177362
0.17764
0.178021
0.178542
0.178515
0.179477
0.179345
0.179733
0.180703
0.180323
0.180429
0.178839
0.178298
0.178503
0.178539
0.17802
0.177639
0.177363
0.177225
0.176963
0.177016
0.177125
0.177288
0.177464
0.177648
0.17747
0.177403
0.177989
0.178161
0.178012
0.177711
0.177405
0.177471
0.177647
0.177464
0.177288
0.177125
0.177017
0.176964
0.176803
0.176792
0.176778
0.176768
0.176767
0.176725
0.176741
0.176591
0.176513
0.176621
0.176621
0.176514
0.176593
0.176742
0.176725
0.176767
0.176769
0.176779
0.176794
0.176805
0.176726
0.176671
0.176571
0.176444
0.176306
0.17616
0.176015
0.175894
0.175889
0.175847
0.175847
0.17589
0.175896
0.176017
0.176161
0.176307
0.176445
0.176572
0.176672
0.176728
0.1767
0.176617
0.176464
0.176264
0.176042
0.175818
0.175615
0.175438
0.175303
0.175273
0.175273
0.175304
0.175439
0.175617
0.17582
0.176044
0.176266
0.176466
0.176619
0.176702
0.176697
0.1766
0.176422
0.176187
0.175924
0.175661
0.175426
0.175237
0.175123
0.175061
0.175062
0.175124
0.175238
0.175427
0.175663
0.175926
0.176189
0.176424
0.176602
0.176699
0.176028
0.175927
0.175741
0.175498
0.175231
0.174969
0.174736
0.174553
0.174446
0.17439
0.17439
0.174445
0.174553
0.174736
0.174969
0.175231
0.175498
0.17574
0.175926
0.176027
0.176019
0.175929
0.175765
0.175551
0.175319
0.175089
0.17488
0.17471
0.174599
0.174549
0.174549
0.174599
0.17471
0.17488
0.175089
0.175318
0.175551
0.175764
0.175929
0.176019
0.176022
0.175955
0.175834
0.175682
0.175522
0.175363
0.175216
0.175079
0.175097
0.175041
0.17504
0.175097
0.175078
0.175216
0.175363
0.175522
0.175682
0.175834
0.175954
0.176022
0.176066
0.176036
0.175986
0.175932
0.175886
0.175831
0.17574
0.175698
0.175605
0.175707
0.175707
0.175605
0.175698
0.175739
0.175831
0.175886
0.175932
0.175986
0.176036
0.176066
0.176184
0.176207
0.176262
0.17635
0.176474
0.176562
0.176608
0.176358
0.176437
0.176591
0.176514
0.176669
0.176358
0.176608
0.176562
0.176474
0.17635
0.176262
0.176207
0.176183
0.176394
0.176488
0.176685
0.176965
0.177314
0.177647
0.177535
0.177496
0.177568
0.17755
0.177481
0.177472
0.177637
0.177535
0.177647
0.177314
0.176964
0.176685
0.176487
0.176394
0.176692
0.176873
0.177261
0.177787
0.178538
0.178933
0.17901
0.17869
0.178415
0.17842
0.178336
0.178429
0.178526
0.178784
0.178933
0.178538
0.177787
0.177261
0.176873
0.176692
0.177042
0.17732
0.177921
0.178835
0.1798
0.180754
0.181029
0.180315
0.40085
0.406997
0.427047
0.180558
0.18111
0.179799
0.178834
0.177921
0.17732
0.177042
0.177382
0.177748
0.178675
0.179794
0.181335
0.183268
0.184013
0.304351
0.347632
0.349609
0.434563
0.385126
0.183958
0.182336
0.179793
0.178674
0.177748
0.177382
0.177577
0.178004
0.17905
0.180566
0.182685
0.185229
0.187204
0.431629
0.347956
0.709569
0.709575
0.483766
0.426511
0.18687
0.18386
0.180565
0.17905
0.178004
0.177577
0.177577
0.178004
0.179051
0.180567
0.182864
0.185633
0.188332
0.406489
0.35019
0.709555
0.709561
0.49132
0.420405
0.435889
0.187735
0.184073
0.180566
0.17905
0.178005
0.177577
0.177383
0.177749
0.178676
0.179795
0.182225
0.184276
0.18686
0.434706
0.483256
0.490691
0.463179
0.43381
0.186116
0.182727
0.179794
0.178676
0.17775
0.177384
0.177043
0.177322
0.177923
0.178837
0.179803
0.18206
0.183188
0.385485
0.421105
0.42063
0.432088
0.437615
0.18189
0.179803
0.178836
0.177923
0.177323
0.177045
0.176695
0.176876
0.177264
0.17779
0.178541
0.178937
0.179816
0.179813
0.435861
0.179196
0.178883
0.178545
0.177787
0.177264
0.176877
0.176696
0.176397
0.17649
0.176688
0.176968
0.177318
0.177651
0.17754
0.178117
0.178236
0.178245
0.178153
0.178148
0.177599
0.177515
0.177633
0.177314
0.176966
0.176688
0.176492
0.176398
0.176187
0.17621
0.176265
0.176354
0.176478
0.176566
0.176613
0.176364
0.176988
0.177006
0.176849
0.176584
0.176369
0.176621
0.176562
0.176478
0.176354
0.176266
0.176212
0.176189
0.17607
0.17604
0.17599
0.175936
0.175891
0.175836
0.175745
0.175704
0.175611
0.175714
0.175714
0.175613
0.175705
0.175746
0.175836
0.175891
0.175937
0.175992
0.176042
0.176072
0.176026
0.175959
0.175838
0.175686
0.175526
0.175368
0.175221
0.175085
0.175104
0.175047
0.175048
0.175105
0.175087
0.175223
0.17537
0.175528
0.175688
0.17584
0.175961
0.176028
0.176023
0.175933
0.175769
0.175556
0.175323
0.175094
0.174886
0.174716
0.174605
0.174556
0.174557
0.174607
0.174718
0.174888
0.175096
0.175325
0.175558
0.175771
0.175935
0.176025
0.176032
0.17593
0.175745
0.175503
0.175236
0.174974
0.174741
0.174559
0.174452
0.174397
0.174397
0.174453
0.174561
0.174743
0.174976
0.175238
0.175505
0.175747
0.175933
0.176034
0.17415
0.174093
0.173996
0.17388
0.17377
0.173683
0.173624
0.173595
0.173603
0.173604
0.173604
0.173603
0.173594
0.173623
0.173682
0.17377
0.173879
0.173995
0.174093
0.174149
0.174177
0.174131
0.174052
0.173962
0.173884
0.173826
0.173787
0.173765
0.173764
0.173766
0.173766
0.173764
0.173765
0.173786
0.173826
0.173883
0.173962
0.174051
0.17413
0.174177
0.174249
0.174223
0.174183
0.174148
0.174136
0.174144
0.174162
0.174153
0.174286
0.17426
0.17426
0.174286
0.174153
0.174162
0.174144
0.174135
0.174147
0.174182
0.174222
0.174249
0.174389
0.174395
0.174417
0.174467
0.174554
0.174651
0.174682
0.174784
0.174726
0.174872
0.174872
0.174726
0.174784
0.174682
0.174651
0.174554
0.174467
0.174417
0.174395
0.174389
0.174619
0.174672
0.174785
0.174954
0.175189
0.175372
0.175565
0.175315
0.175403
0.175558
0.175466
0.175679
0.175315
0.175565
0.175372
0.175188
0.174954
0.174784
0.174671
0.174619
0.174944
0.175055
0.175287
0.175612
0.175989
0.176422
0.17623
0.176245
0.176306
0.176165
0.176091
0.17614
0.176489
0.176231
0.176422
0.175989
0.175612
0.175287
0.175055
0.174944
0.175342
0.175519
0.175903
0.176372
0.177092
0.177289
0.177366
0.177206
0.176919
0.176716
0.176634
0.176765
0.177116
0.177302
0.177289
0.177092
0.176372
0.175903
0.175519
0.175342
0.175764
0.176009
0.176529
0.17731
0.177946
0.178643
0.178815
0.178468
0.377479
0.384637
0.402937
0.178606
0.178907
0.177946
0.17731
0.176529
0.176009
0.175764
0.176145
0.176439
0.177233
0.178032
0.179113
0.180292
0.180566
0.27719
0.316942
0.313619
0.398241
0.357577
0.180639
0.179737
0.178032
0.177233
0.17644
0.176145
0.176357
0.176693
0.17754
0.178664
0.180065
0.181352
0.182268
0.408483
0.317425
0.369706
0.369705
0.412184
0.400454
0.182103
0.180657
0.178664
0.17754
0.176693
0.176358
0.176358
0.176693
0.17754
0.178665
0.180144
0.181558
0.182914
0.384033
0.314323
0.369715
0.369715
0.413693
0.394091
0.41325
0.182543
0.180693
0.178665
0.177541
0.176694
0.176359
0.176146
0.176441
0.177234
0.178034
0.179816
0.18079
0.182099
0.398164
0.411353
0.413046
0.423606
0.404389
0.181649
0.179737
0.178034
0.177235
0.176442
0.176148
0.175765
0.17601
0.176531
0.177312
0.177949
0.179644
0.180206
0.357924
0.395321
0.394495
0.402234
0.410363
0.179192
0.177951
0.177311
0.176533
0.176012
0.175768
0.175345
0.175521
0.175905
0.176375
0.177095
0.177293
0.17797
0.178103
0.41333
0.177452
0.177229
0.177099
0.176372
0.175906
0.175523
0.175347
0.174947
0.175058
0.17529
0.175615
0.175993
0.176427
0.176235
0.176758
0.176832
0.176611
0.176505
0.17654
0.17622
0.176205
0.176403
0.175988
0.175613
0.175291
0.17506
0.174949
0.174623
0.174675
0.174788
0.174958
0.175193
0.175376
0.175571
0.175321
0.175833
0.17579
0.175598
0.175338
0.175327
0.17558
0.175372
0.175192
0.174959
0.17479
0.174677
0.174625
0.174393
0.174399
0.174421
0.174471
0.174558
0.174656
0.174688
0.17479
0.174732
0.174879
0.174879
0.174734
0.174792
0.174689
0.174656
0.174559
0.174473
0.174423
0.174401
0.174395
0.174253
0.174226
0.174186
0.174152
0.17414
0.174149
0.174167
0.174159
0.174292
0.174268
0.174268
0.174294
0.174162
0.17417
0.174151
0.174142
0.174154
0.174189
0.174229
0.174255
0.174181
0.174134
0.174056
0.173967
0.173888
0.173831
0.173792
0.173772
0.173771
0.173774
0.173774
0.173772
0.173774
0.173795
0.173834
0.173891
0.173969
0.174058
0.174137
0.174184
0.174153
0.174097
0.173999
0.173884
0.173775
0.173688
0.173629
0.173601
0.17361
0.173611
0.173612
0.173611
0.173603
0.173632
0.173691
0.173778
0.173887
0.174003
0.1741
0.174157
0.172575
0.172543
0.172494
0.172452
0.17244
0.172468
0.17253
0.172611
0.172706
0.172754
0.172754
0.172706
0.17261
0.17253
0.172468
0.172439
0.172451
0.172493
0.172542
0.172575
0.172617
0.172592
0.172556
0.172534
0.172548
0.172601
0.172678
0.172762
0.172834
0.172895
0.172895
0.172833
0.172762
0.172678
0.172601
0.172548
0.172534
0.172556
0.172591
0.172617
0.172718
0.172707
0.172701
0.172721
0.17279
0.172902
0.173034
0.17312
0.173362
0.173357
0.173357
0.173362
0.17312
0.173034
0.172902
0.17279
0.172721
0.172701
0.172707
0.172717
0.172901
0.172915
0.172956
0.173043
0.173192
0.173378
0.173489
0.173712
0.173686
0.173893
0.173893
0.173686
0.173712
0.173489
0.173378
0.173192
0.173042
0.172956
0.172914
0.1729
0.173184
0.173234
0.173349
0.173532
0.173808
0.17405
0.174377
0.174111
0.174244
0.17445
0.174343
0.17463
0.174111
0.174378
0.17405
0.173808
0.173532
0.173349
0.173234
0.173183
0.173565
0.173661
0.173874
0.174177
0.174548
0.175088
0.17486
0.174917
0.175025
0.17485
0.174763
0.17483
0.175272
0.17486
0.175089
0.174549
0.174177
0.173874
0.173661
0.173565
0.174013
0.174158
0.174491
0.174862
0.175573
0.175649
0.175736
0.175677
0.175456
0.175255
0.175176
0.175323
0.175708
0.175753
0.175649
0.175574
0.174862
0.174492
0.174158
0.174013
0.174469
0.174658
0.175079
0.175725
0.176116
0.176667
0.1768
0.176672
0.347293
0.354856
0.37245
0.17675
0.176904
0.176116
0.175726
0.17508
0.174659
0.174469
0.17487
0.175078
0.175761
0.176277
0.177022
0.177831
0.177939
0.244805
0.281433
0.276307
0.362001
0.325414
0.178072
0.177434
0.176277
0.175762
0.175079
0.174872
0.175091
0.175336
0.176007
0.176833
0.17778
0.17844
0.178956
0.378297
0.281932
0.351895
0.351893
0.365704
0.366653
0.17887
0.178024
0.176834
0.176008
0.175338
0.175093
0.175091
0.175337
0.176007
0.176833
0.177787
0.178533
0.179342
0.354264
0.277024
0.351899
0.3519
0.364796
0.35914
0.383476
0.179093
0.177931
0.176835
0.176009
0.175339
0.175094
0.174871
0.175079
0.175762
0.176278
0.177687
0.178073
0.178883
0.361872
0.364872
0.364191
0.381276
0.370521
0.178536
0.177165
0.176279
0.175764
0.175082
0.174874
0.17447
0.17466
0.175081
0.175728
0.176118
0.177524
0.177816
0.325765
0.36138
0.359563
0.368298
0.378491
0.17683
0.176124
0.175729
0.175084
0.174663
0.174474
0.174015
0.17416
0.174494
0.174865
0.175576
0.175652
0.176213
0.176405
0.383553
0.175643
0.175591
0.175584
0.174864
0.174497
0.174164
0.174019
0.173568
0.173664
0.173877
0.17418
0.174552
0.175093
0.174865
0.175359
0.175459
0.175187
0.175068
0.175092
0.174742
0.174824
0.175068
0.174547
0.174179
0.173879
0.173667
0.173571
0.173187
0.173237
0.173353
0.173536
0.173812
0.174055
0.174383
0.174117
0.174592
0.174544
0.174302
0.173998
0.174126
0.174395
0.174051
0.173813
0.173538
0.173355
0.17324
0.17319
0.172904
0.172918
0.17296
0.173047
0.173197
0.173383
0.173495
0.173718
0.173693
0.173901
0.173901
0.173695
0.173721
0.173496
0.173383
0.173199
0.173049
0.172963
0.172921
0.172908
0.172722
0.172711
0.172705
0.172725
0.172795
0.172907
0.17304
0.173126
0.173369
0.173365
0.173366
0.173371
0.17313
0.173043
0.17291
0.172798
0.172729
0.172708
0.172714
0.172725
0.172621
0.172595
0.17256
0.172539
0.172553
0.172606
0.172684
0.172768
0.172841
0.172903
0.172903
0.172843
0.172772
0.172688
0.17261
0.172556
0.172542
0.172564
0.172599
0.172625
0.172579
0.172547
0.172498
0.172456
0.172444
0.172473
0.172536
0.172617
0.172713
0.172762
0.172763
0.172715
0.17262
0.172539
0.172477
0.172448
0.17246
0.172501
0.17255
0.172583
0.171144
0.171122
0.171098
0.1711
0.171156
0.171275
0.171441
0.171624
0.171806
0.171904
0.171904
0.171806
0.171623
0.171441
0.171274
0.171155
0.1711
0.171097
0.171122
0.171144
0.171188
0.171169
0.171151
0.171164
0.171237
0.171374
0.171551
0.171732
0.171879
0.172007
0.172006
0.171879
0.171732
0.171551
0.171374
0.171236
0.171163
0.17115
0.171168
0.171187
0.171294
0.171282
0.171279
0.171318
0.171432
0.17162
0.171852
0.172028
0.17239
0.172415
0.172415
0.17239
0.172028
0.171852
0.17162
0.171431
0.171317
0.171279
0.171282
0.171293
0.17149
0.171492
0.171519
0.171601
0.171776
0.172023
0.172202
0.172549
0.172555
0.17285
0.17285
0.172555
0.172549
0.172202
0.172023
0.171776
0.1716
0.171519
0.171492
0.17149
0.171798
0.171826
0.171907
0.17206
0.172345
0.172624
0.17309
0.172798
0.17298
0.173271
0.173148
0.17354
0.172799
0.17309
0.172624
0.172345
0.17206
0.171907
0.171826
0.171798
0.172215
0.172277
0.172436
0.172681
0.173024
0.173673
0.173388
0.173497
0.173705
0.173528
0.173426
0.173492
0.174017
0.173388
0.173674
0.173024
0.172681
0.172436
0.172277
0.172215
0.172703
0.172799
0.173059
0.173311
0.174023
0.173976
0.174067
0.174119
0.173974
0.173828
0.17377
0.173913
0.174291
0.174173
0.173977
0.174024
0.173312
0.17306
0.172799
0.172703
0.173193
0.173317
0.17363
0.174145
0.174326
0.174783
0.174915
0.174946
0.315089
0.322807
0.34012
0.174984
0.175039
0.174327
0.174146
0.173631
0.173318
0.173195
0.173624
0.173739
0.174328
0.174578
0.175068
0.175719
0.175715
0.211949
0.248637
0.24318
0.328434
0.292474
0.175915
0.175361
0.17458
0.17433
0.173741
0.173626
0.173859
0.174018
0.174543
0.175126
0.17575
0.176073
0.176383
0.346065
0.249126
0.327777
0.327777
0.331237
0.33368
0.17635
0.175756
0.175128
0.174545
0.17402
0.173861
0.173859
0.174018
0.174543
0.175126
0.175703
0.176093
0.176638
0.322225
0.24389
0.327778
0.327776
0.330114
0.326075
0.351414
0.176455
0.175548
0.175129
0.174546
0.174022
0.173863
0.173625
0.17374
0.174329
0.17458
0.175813
0.175803
0.176375
0.328301
0.330436
0.329524
0.346728
0.337293
0.176045
0.174833
0.174583
0.174333
0.173744
0.173629
0.173195
0.173318
0.173632
0.174147
0.174329
0.175645
0.175767
0.292828
0.328402
0.326413
0.335104
0.345648
0.174651
0.174339
0.174151
0.173638
0.173323
0.1732
0.172705
0.172801
0.173062
0.173314
0.174026
0.173979
0.174504
0.174743
0.351478
0.173809
0.173916
0.174042
0.173316
0.173067
0.172806
0.17271
0.172218
0.17228
0.172439
0.172684
0.173028
0.173677
0.173393
0.17392
0.174078
0.173793
0.173671
0.173649
0.173161
0.173339
0.173653
0.173025
0.172685
0.172443
0.172284
0.172223
0.171801
0.171829
0.17191
0.172064
0.17235
0.172629
0.173096
0.172805
0.173276
0.173232
0.172923
0.172525
0.172817
0.173114
0.172627
0.172353
0.172068
0.171915
0.171834
0.171806
0.171493
0.171496
0.171523
0.171605
0.17178
0.172028
0.172208
0.172556
0.172563
0.172858
0.172859
0.172566
0.17256
0.172211
0.17203
0.171784
0.171609
0.171527
0.171501
0.171498
0.171297
0.171286
0.171283
0.171322
0.171436
0.171625
0.171858
0.172035
0.172398
0.172423
0.172424
0.172401
0.17204
0.171864
0.17163
0.171441
0.171326
0.171287
0.17129
0.171302
0.171191
0.171172
0.171155
0.171168
0.171241
0.17138
0.171557
0.171739
0.171886
0.172015
0.172016
0.171889
0.171743
0.171562
0.171384
0.171246
0.171173
0.171159
0.171177
0.171196
0.171148
0.171126
0.171102
0.171105
0.171161
0.17128
0.171447
0.17163
0.171814
0.171912
0.171913
0.171817
0.171634
0.171452
0.171285
0.171166
0.171109
0.171106
0.17113
0.171152
0.16989
0.169868
0.169849
0.169871
0.169972
0.170165
0.170429
0.170716
0.170988
0.171128
0.171128
0.170988
0.170716
0.170429
0.170165
0.169971
0.16987
0.169848
0.169867
0.169889
0.169924
0.169899
0.169875
0.169893
0.169997
0.1702
0.170467
0.170751
0.170968
0.171107
0.171107
0.170968
0.17075
0.170467
0.1702
0.169997
0.169893
0.169874
0.169898
0.169923
0.170017
0.169987
0.169957
0.169975
0.170097
0.170338
0.170661
0.17094
0.171435
0.171472
0.171472
0.171435
0.17094
0.170661
0.170337
0.170097
0.169974
0.169957
0.169987
0.170017
0.170205
0.170174
0.170146
0.170171
0.170324
0.170602
0.170816
0.171305
0.171343
0.171759
0.171759
0.171343
0.171304
0.170816
0.170602
0.170324
0.170171
0.170146
0.170174
0.170205
0.170519
0.170497
0.170496
0.17056
0.170801
0.171078
0.171701
0.171352
0.171591
0.172007
0.171864
0.172409
0.171352
0.171701
0.171079
0.170802
0.17056
0.170496
0.170498
0.170519
0.170962
0.17096
0.171016
0.171139
0.171398
0.172181
0.171818
0.171936
0.172314
0.172139
0.172018
0.172074
0.172719
0.171818
0.172181
0.171399
0.17114
0.171017
0.17096
0.170962
0.171491
0.171508
0.171652
0.171707
0.172429
0.172259
0.1723
0.172486
0.172409
0.172336
0.172314
0.172449
0.172825
0.172524
0.17226
0.17243
0.171708
0.171653
0.171509
0.171491
0.172028
0.172062
0.172241
0.172567
0.17252
0.172893
0.173062
0.17322
0.282789
0.290573
0.30778
0.173236
0.173219
0.172521
0.172569
0.172242
0.172064
0.17203
0.1725
0.172499
0.172993
0.172923
0.173173
0.173788
0.173659
0.179535
0.216726
0.211285
0.296082
0.259926
0.173948
0.173412
0.172925
0.172996
0.172501
0.172502
0.172751
0.172762
0.173175
0.173525
0.173869
0.173984
0.174153
0.313745
0.217218
0.298996
0.298995
0.299325
0.30147
0.174161
0.173663
0.173528
0.173179
0.172766
0.172755
0.172752
0.172763
0.173176
0.173525
0.17378
0.173948
0.174349
0.289984
0.211987
0.298993
0.29899
0.298346
0.29392
0.31915
0.174191
0.173332
0.17353
0.17318
0.172768
0.172756
0.172501
0.1725
0.172995
0.172925
0.174119
0.173756
0.174195
0.295948
0.298541
0.297773
0.314635
0.304836
0.173833
0.172557
0.172931
0.173001
0.172506
0.172506
0.17203
0.172064
0.172243
0.172569
0.172522
0.173913
0.173884
0.260268
0.29618
0.294252
0.302673
0.313115
0.172499
0.172541
0.172576
0.172251
0.172071
0.172036
0.171493
0.17151
0.171655
0.17171
0.172432
0.172263
0.172768
0.173063
0.31921
0.171864
0.172187
0.172459
0.171715
0.171663
0.171517
0.1715
0.170965
0.170963
0.171019
0.171143
0.171402
0.172185
0.171823
0.172398
0.172624
0.172337
0.172209
0.172118
0.171418
0.171751
0.172159
0.171402
0.171147
0.171026
0.170969
0.170971
0.170522
0.170501
0.1705
0.170564
0.170806
0.171083
0.171706
0.171358
0.171862
0.171803
0.171401
0.170849
0.171377
0.171734
0.171084
0.170812
0.17057
0.170506
0.170507
0.170528
0.170209
0.170178
0.170149
0.170176
0.170328
0.170607
0.170822
0.171311
0.171351
0.171768
0.171769
0.171355
0.171318
0.170828
0.170611
0.170334
0.170181
0.170155
0.170183
0.170214
0.170021
0.169991
0.169961
0.169979
0.170102
0.170343
0.170667
0.170947
0.171443
0.171482
0.171483
0.171447
0.170954
0.170674
0.170349
0.170108
0.169985
0.169966
0.169996
0.170026
0.169928
0.169903
0.169879
0.169898
0.170002
0.170205
0.170473
0.170757
0.170977
0.171117
0.171118
0.17098
0.170763
0.170479
0.170212
0.170008
0.169903
0.169884
0.169907
0.169932
0.169893
0.169871
0.169853
0.169876
0.169977
0.17017
0.170435
0.170723
0.170996
0.171137
0.171139
0.170999
0.170728
0.170441
0.170176
0.169983
0.169881
0.169858
0.169876
0.169898
0.168841
0.168812
0.168785
0.168813
0.168947
0.169211
0.169579
0.169982
0.170366
0.170569
0.170569
0.170366
0.169982
0.169578
0.169211
0.168946
0.168812
0.168785
0.168811
0.168841
0.16886
0.168818
0.168768
0.168769
0.168884
0.16914
0.169496
0.169893
0.170209
0.170414
0.170414
0.170209
0.169893
0.169496
0.169139
0.168883
0.168769
0.168768
0.168817
0.16886
0.168929
0.168864
0.168776
0.168734
0.168826
0.169094
0.169508
0.169887
0.170575
0.170638
0.170638
0.170575
0.169887
0.169508
0.169094
0.168826
0.168734
0.168775
0.168864
0.168929
0.169097
0.169007
0.168878
0.168788
0.168856
0.16913
0.169346
0.169991
0.170042
0.170617
0.170617
0.170043
0.169991
0.169346
0.16913
0.168856
0.168788
0.168878
0.169007
0.169096
0.169409
0.169304
0.169159
0.169051
0.169173
0.16938
0.170171
0.1697
0.170033
0.170618
0.170449
0.171217
0.1697
0.170172
0.169381
0.169173
0.169051
0.169159
0.169304
0.169409
0.16988
0.169774
0.169655
0.169568
0.169635
0.170563
0.170085
0.170165
0.170797
0.170615
0.170467
0.170512
0.171339
0.170085
0.170564
0.169636
0.169569
0.169655
0.169774
0.169881
0.170465
0.170359
0.170318
0.170062
0.170742
0.17042
0.170324
0.170694
0.170674
0.170679
0.170708
0.170827
0.171235
0.170719
0.170421
0.170743
0.170063
0.170319
0.17036
0.170465
0.171071
0.170972
0.170938
0.17099
0.170599
0.170886
0.17112
0.1714
0.250575
0.258388
0.275538
0.171401
0.171325
0.170601
0.170992
0.17094
0.170973
0.171073
0.171614
0.17146
0.171826
0.171281
0.171245
0.171895
0.17159
0.147392
0.185077
0.179738
0.26412
0.227629
0.171999
0.171478
0.171284
0.17183
0.171463
0.171617
0.171906
0.171762
0.172001
0.171993
0.172033
0.17198
0.172003
0.281521
0.185576
0.269362
0.269361
0.267974
0.26954
0.172059
0.171573
0.171999
0.172006
0.171766
0.17191
0.171906
0.171762
0.172001
0.171994
0.171903
0.171893
0.17219
0.257803
0.180435
0.269357
0.269356
0.267238
0.262074
0.286957
0.17203
0.171092
0.172001
0.172008
0.171768
0.171912
0.171616
0.171461
0.171828
0.171282
0.172519
0.17176
0.172107
0.263985
0.267202
0.266676
0.283237
0.272661
0.171657
0.170135
0.171292
0.171836
0.171469
0.171623
0.171073
0.170973
0.17094
0.170992
0.170602
0.172232
0.172014
0.227965
0.264233
0.262396
0.270533
0.280809
0.170188
0.170632
0.171004
0.170952
0.170982
0.171081
0.170467
0.170361
0.17032
0.170065
0.170745
0.170424
0.170901
0.171276
0.287006
0.169659
0.170325
0.170789
0.170074
0.170331
0.170371
0.170476
0.169883
0.169777
0.169658
0.169572
0.16964
0.170568
0.17009
0.170714
0.171028
0.170724
0.170585
0.170402
0.169387
0.169991
0.17054
0.169645
0.169579
0.169667
0.169786
0.169891
0.169412
0.169308
0.169163
0.169055
0.169177
0.169385
0.170177
0.169706
0.170309
0.170181
0.169647
0.168851
0.169736
0.170221
0.169391
0.169187
0.169064
0.169171
0.169315
0.16942
0.1691
0.169011
0.168882
0.168792
0.168861
0.169136
0.169352
0.169997
0.170051
0.170627
0.170629
0.170057
0.170008
0.169361
0.169143
0.16887
0.1688
0.168889
0.169018
0.169107
0.168933
0.168868
0.16878
0.168738
0.168831
0.1691
0.169513
0.169894
0.170583
0.170648
0.17065
0.170589
0.169904
0.169524
0.169108
0.168839
0.168745
0.168786
0.168874
0.168938
0.168864
0.168822
0.168773
0.168774
0.168888
0.169145
0.169502
0.1699
0.170217
0.170423
0.170425
0.170222
0.169908
0.169511
0.169153
0.168896
0.168781
0.168778
0.168827
0.168868
0.168845
0.168815
0.168789
0.168817
0.168951
0.169217
0.169585
0.169989
0.170375
0.170579
0.170581
0.170379
0.169996
0.169592
0.169224
0.168959
0.168824
0.168795
0.168821
0.168848
0.168035
0.167995
0.167959
0.167991
0.168163
0.168517
0.169017
0.16958
0.170113
0.170402
0.170402
0.170113
0.169579
0.169017
0.168516
0.168163
0.16799
0.167958
0.167994
0.168035
0.168036
0.167971
0.167885
0.167857
0.167972
0.168285
0.168749
0.169281
0.169748
0.170046
0.170046
0.169748
0.169281
0.168749
0.168285
0.167971
0.167856
0.167885
0.16797
0.168036
0.168081
0.167967
0.167793
0.167656
0.167682
0.16796
0.168464
0.168918
0.169957
0.170072
0.170072
0.169957
0.168918
0.168463
0.16796
0.167681
0.167656
0.167793
0.167966
0.16808
0.16823
0.168056
0.167777
0.167503
0.167409
0.167634
0.167828
0.168581
0.168679
0.169442
0.169442
0.16868
0.168581
0.167828
0.167634
0.167409
0.167503
0.167776
0.168056
0.16823
0.168551
0.168323
0.167959
0.167569
0.167464
0.167457
0.168443
0.167723
0.168242
0.169045
0.168835
0.169927
0.167724
0.168443
0.167458
0.167464
0.167569
0.167958
0.168323
0.168551
0.169075
0.168812
0.168421
0.16799
0.167661
0.168719
0.168089
0.168046
0.169062
0.168863
0.168671
0.168701
0.169803
0.16809
0.16872
0.167662
0.167991
0.168422
0.168813
0.169075
0.169752
0.169461
0.169125
0.168404
0.168892
0.168348
0.16795
0.168604
0.168627
0.168729
0.168826
0.168933
0.169396
0.168611
0.16835
0.168894
0.168405
0.169126
0.169462
0.169753
0.170478
0.170165
0.169771
0.169374
0.168423
0.168598
0.168924
0.16935
0.218155
0.226018
0.243087
0.16934
0.169203
0.168426
0.169377
0.169773
0.170167
0.17048
0.171139
0.170769
0.170964
0.169656
0.169181
0.169895
0.169313
0.115129
0.153523
0.148415
0.232129
0.195137
0.169894
0.169447
0.16966
0.170968
0.170772
0.171142
0.171498
0.171143
0.171165
0.170523
0.170134
0.169893
0.169714
0.249107
0.154042
0.240602
0.240602
0.23683
0.237645
0.16983
0.169307
0.17053
0.171171
0.171149
0.171504
0.171499
0.171144
0.171166
0.170524
0.169954
0.169747
0.169933
0.225441
0.149104
0.240596
0.240598