/*--------------------------------*- C++ -*----------------------------------*\
  =========                 |
  \\      /  F ield         | OpenFOAM: The Open Source CFD Toolbox
   \\    /   O peration     | Website:  https://openfoam.org
    \\  /    A nd           | Version:  7
     \\/     M anipulation  |
\*---------------------------------------------------------------------------*/
FoamFile
{
    version     2.0;
    format      ascii;
    class       volScalarField;
    location    "0.4";
    object      p;
}
// * * * * * * * * * * * * * * * * * * * * * * * * * * * * * * * * * * * * * //

dimensions      [0 2 -2 0 0 0 0];

internalField   nonuniform List<scalar> 
303246
(
0.17084
0.170603
0.170157
0.169548
0.168839
0.168101
0.167409
0.166826
0.166426
0.166215
0.166215
0.166426
0.166826
0.167408
0.168101
0.168838
0.169547
0.170156
0.170602
0.170838
0.17071
0.170484
0.170056
0.169474
0.168798
0.168093
0.167434
0.166875
0.166487
0.166284
0.166284
0.166486
0.166875
0.167433
0.168092
0.168797
0.169473
0.170055
0.170482
0.170709
0.170482
0.170277
0.169892
0.169371
0.168769
0.168138
0.167549
0.167065
0.166762
0.166584
0.166584
0.166762
0.167065
0.167549
0.168137
0.168768
0.16937
0.169891
0.170276
0.170481
0.170211
0.170044
0.169736
0.169326
0.168861
0.168351
0.167898
0.167425
0.167215
0.167224
0.167224
0.167215
0.167425
0.167897
0.16835
0.168859
0.169325
0.169735
0.170043
0.170209
0.169963
0.169859
0.169678
0.169456
0.169215
0.168946
0.168479
0.168194
0.168108
0.168453
0.168405
0.168397
0.168194
0.168478
0.168945
0.169214
0.169454
0.169676
0.169858
0.169961
0.169803
0.169793
0.169806
0.169876
0.170057
0.169719
0.16951
0.169458
0.170093
0.170999
0.170748
0.170672
0.169504
0.169427
0.169718
0.170055
0.169874
0.169805
0.169791
0.169801
0.169776
0.169901
0.170203
0.170871
0.171391
0.17141
0.171749
0.170916
0.171882
0.18155
0.173523
0.17907
0.171234
0.170955
0.171575
0.171389
0.170868
0.170201
0.169899
0.169774
0.169878
0.170157
0.170814
0.171918
0.173658
0.174869
0.174967
0.173099
0.492167
0.173625
0.175556
0.173655
0.171915
0.170812
0.170154
0.169875
0.17007
0.170533
0.171657
0.173418
0.175769
0.180839
0.18507
0.493445
0.56997
0.547586
0.539353
0.543455
0.184011
0.178061
0.173415
0.171654
0.170529
0.170067
0.170221
0.170795
0.172135
0.174481
0.178505
0.186088
0.209247
0.567393
0.611029
0.611027
0.592764
0.570597
0.203103
0.181402
0.174477
0.172131
0.17079
0.170217
0.170222
0.170795
0.172136
0.174482
0.178983
0.187599
0.210178
0.498948
0.54544
0.61098
0.610977
0.619652
0.555273
0.551186
0.205368
0.182116
0.174478
0.172131
0.17079
0.170217
0.170071
0.170534
0.171658
0.17342
0.17755
0.184605
0.20809
0.539406
0.59212
0.616663
0.610374
0.521214
0.198549
0.17992
0.173416
0.171654
0.17053
0.170067
0.169879
0.170159
0.170816
0.17192
0.17366
0.177487
0.181265
0.544189
0.567387
0.553383
0.521131
0.555614
0.178519
0.173658
0.171917
0.170813
0.170155
0.169875
0.169778
0.169904
0.170205
0.170873
0.171394
0.172741
0.172782
0.172333
0.54819
0.172553
0.172556
0.171394
0.170871
0.170202
0.169899
0.169774
0.169805
0.169796
0.169809
0.169879
0.17006
0.169723
0.170315
0.170228
0.171523
0.178257
0.173244
0.17529
0.170217
0.169628
0.169719
0.170058
0.169875
0.169805
0.169791
0.1698
0.169966
0.169862
0.169681
0.169459
0.169218
0.16895
0.168483
0.168199
0.168946
0.169281
0.169137
0.168989
0.168199
0.168483
0.168947
0.169215
0.169455
0.169676
0.169857
0.169961
0.170214
0.170048
0.169739
0.16933
0.168864
0.168355
0.167902
0.16743
0.16722
0.167229
0.167228
0.167219
0.167428
0.1679
0.168352
0.16886
0.169325
0.169734
0.170043
0.170209
0.170486
0.170281
0.169896
0.169375
0.168773
0.168142
0.167554
0.16707
0.166766
0.166588
0.166588
0.166765
0.167068
0.167551
0.168138
0.168769
0.16937
0.169891
0.170275
0.17048
0.170714
0.170487
0.17006
0.169478
0.168802
0.168097
0.167438
0.16688
0.166491
0.166288
0.166287
0.16649
0.166878
0.167435
0.168094
0.168797
0.169473
0.170054
0.170482
0.170708
0.170843
0.170607
0.170161
0.169552
0.168843
0.168105
0.167413
0.166831
0.16643
0.166219
0.166219
0.166429
0.166829
0.16741
0.168102
0.168839
0.169547
0.170155
0.170602
0.170838
0.167099
0.167019
0.166869
0.166668
0.16644
0.166206
0.165989
0.165806
0.165691
0.165632
0.165632
0.165691
0.165806
0.165988
0.166205
0.16644
0.166668
0.166868
0.167017
0.167098
0.167117
0.167047
0.166919
0.166747
0.166551
0.166347
0.166155
0.16598
0.165865
0.16582
0.16582
0.165865
0.16598
0.166154
0.166346
0.166551
0.166746
0.166918
0.167046
0.167116
0.167167
0.167121
0.167037
0.166926
0.166798
0.166656
0.166507
0.166365
0.166346
0.166293
0.166293
0.166346
0.166365
0.166507
0.166656
0.166798
0.166925
0.167036
0.16712
0.167166
0.167273
0.167265
0.167254
0.167242
0.16723
0.16717
0.167153
0.167001
0.166913
0.166993
0.166993
0.166913
0.167
0.167153
0.167169
0.167229
0.167241
0.167253
0.167264
0.167272
0.167459
0.167507
0.167603
0.167743
0.167883
0.168024
0.16786
0.167772
0.167725
0.167916
0.167861
0.167946
0.167772
0.167859
0.168023
0.167882
0.167742
0.167602
0.167505
0.167457
0.167736
0.167859
0.168108
0.168439
0.168884
0.168884
0.169164
0.168997
0.169136
0.169504
0.169389
0.169269
0.168916
0.169055
0.168883
0.168883
0.168438
0.168106
0.167858
0.167734
0.168097
0.168324
0.168774
0.169487
0.170192
0.17078
0.170989
0.170311
0.1704
0.171546
0.171035
0.171441
0.170271
0.170316
0.170852
0.170191
0.169485
0.168773
0.168322
0.168095
0.168496
0.168831
0.169546
0.170671
0.172051
0.173206
0.173554
0.17227
0.389616
0.389908
0.408708
0.172677
0.173678
0.172049
0.17067
0.169544
0.168829
0.168494
0.168873
0.169313
0.170402
0.171923
0.17381
0.176986
0.179001
0.31437
0.385618
0.397698
0.428112
0.37273
0.178645
0.175344
0.171921
0.170399
0.16931
0.16887
0.16909
0.169556
0.170887
0.172813
0.175659
0.180616
0.186458
0.413971
0.385041
-0.0529517
-0.0529397
0.489009
0.416454
0.185084
0.177793
0.172811
0.170884
0.169553
0.169087
0.169091
0.169557
0.170887
0.172814
0.176006
0.181323
0.188256
0.390855
0.397511
-0.0529599
-0.0529679
0.513098
0.414008
0.416589
0.18661
0.178217
0.172811
0.170884
0.169553
0.169087
0.168874
0.169314
0.170403
0.171924
0.17498
0.179009
0.185717
0.42747
0.487772
0.511519
0.558703
0.417773
0.183672
0.176505
0.171921
0.1704
0.16931
0.16887
0.168498
0.168833
0.169548
0.170673
0.172053
0.174808
0.177166
0.372609
0.413119
0.413199
0.417157
0.421453
0.175279
0.172052
0.17067
0.169544
0.168829
0.168494
0.1681
0.168326
0.168777
0.169489
0.170195
0.171679
0.17174
0.171621
0.41525
0.171158
0.171067
0.17019
0.169484
0.168772
0.168322
0.168095
0.167738
0.167862
0.168111
0.168443
0.168888
0.168888
0.169747
0.169658
0.17011
0.171061
0.1707
0.170861
0.169259
0.168856
0.168872
0.168882
0.168437
0.168105
0.167857
0.167733
0.167462
0.16751
0.167606
0.167747
0.167887
0.168028
0.167865
0.167777
0.168379
0.168569
0.168443
0.168196
0.167777
0.167861
0.168023
0.167882
0.167741
0.167601
0.167504
0.167457
0.167277
0.167269
0.167257
0.167245
0.167234
0.167174
0.167158
0.167005
0.166918
0.166998
0.166998
0.166917
0.167004
0.167155
0.167169
0.167228
0.16724
0.167252
0.167263
0.167271
0.167171
0.167125
0.16704
0.16693
0.166802
0.166661
0.166512
0.16637
0.166351
0.166297
0.166297
0.16635
0.166368
0.166509
0.166657
0.166798
0.166924
0.167035
0.167119
0.167165
0.16712
0.167051
0.166922
0.166751
0.166556
0.166351
0.166159
0.165985
0.16587
0.165824
0.165824
0.165869
0.165983
0.166156
0.166347
0.166551
0.166746
0.166917
0.167046
0.167115
0.167103
0.167022
0.166873
0.166672
0.166444
0.16621
0.165993
0.165811
0.165696
0.165636
0.165636
0.165695
0.165809
0.16599
0.166206
0.16644
0.166667
0.166867
0.167017
0.167097
0.16667
0.166577
0.166404
0.166175
0.165916
0.165653
0.165412
0.165213
0.165088
0.165019
0.165019
0.165088
0.165213
0.165411
0.165653
0.165915
0.166174
0.166403
0.166575
0.166668
0.166668
0.166584
0.166428
0.166222
0.165989
0.165751
0.165527
0.165338
0.165212
0.165148
0.165148
0.165212
0.165337
0.165527
0.16575
0.165988
0.166221
0.166427
0.166583
0.166667
0.16668
0.166615
0.166495
0.166338
0.166162
0.165979
0.165802
0.165629
0.165602
0.165534
0.165534
0.165602
0.165628
0.165801
0.165979
0.166161
0.166337
0.166494
0.166614
0.166679
0.166732
0.166697
0.166636
0.166559
0.166477
0.166377
0.166242
0.166151
0.166035
0.166102
0.166102
0.166034
0.16615
0.166242
0.166376
0.166476
0.166558
0.166635
0.166696
0.166731
0.166849
0.16686
0.166889
0.166934
0.166997
0.167013
0.167
0.166745
0.16686
0.166971
0.166905
0.167048
0.166744
0.167
0.167012
0.166996
0.166933
0.166888
0.166859
0.166848
0.167046
0.167119
0.167274
0.167491
0.167748
0.167984
0.167865
0.167845
0.167895
0.167898
0.167834
0.167827
0.167959
0.167865
0.167983
0.167747
0.16749
0.167273
0.167118
0.167045
0.16732
0.167471
0.167799
0.168245
0.16888
0.169218
0.169285
0.168965
0.16874
0.168761
0.168679
0.168768
0.168843
0.169077
0.169217
0.168879
0.168244
0.167798
0.16747
0.167318
0.167633
0.167873
0.168394
0.169205
0.170095
0.171
0.171229
0.170549
0.363971
0.369335
0.385945
0.170795
0.17133
0.170094
0.169204
0.168392
0.167871
0.167631
0.167932
0.168254
0.169061
0.17009
0.17159
0.173392
0.17415
0.275306
0.31568
0.316456
0.38597
0.347697
0.174122
0.172521
0.170088
0.16906
0.168252
0.16793
0.168098
0.168482
0.16941
0.170798
0.172852
0.175321
0.177228
0.391103
0.315378
0.617651
0.617654
0.423402
0.386901
0.176938
0.174008
0.170796
0.169408
0.16848
0.168096
0.168098
0.168483
0.169411
0.170798
0.173033
0.175722
0.178338
0.368888
0.316636
0.617624
0.617625
0.428071
0.381632
0.395819
0.17776
0.174221
0.170796
0.169408
0.16848
0.168096
0.167933
0.168256
0.169063
0.170091
0.172424
0.174399
0.176906
0.385782
0.423025
0.427601
0.405511
0.389834
0.176208
0.172983
0.170089
0.16906
0.168253
0.16793
0.167634
0.167875
0.168396
0.169207
0.170097
0.172236
0.173343
0.347984
0.381637
0.381955
0.388187
0.394745
0.17215
0.170098
0.169204
0.168393
0.167871
0.167631
0.167322
0.167474
0.167802
0.168248
0.168883
0.169221
0.170071
0.170061
0.395743
0.169542
0.169176
0.168885
0.168241
0.167797
0.167469
0.167318
0.167049
0.167122
0.167277
0.167494
0.167752
0.167988
0.16787
0.168429
0.168579
0.168587
0.168498
0.168504
0.167996
0.167842
0.167965
0.167743
0.167486
0.167271
0.167117
0.167044
0.166852
0.166863
0.166892
0.166937
0.167001
0.167017
0.167005
0.16675
0.167361
0.16739
0.167254
0.167052
0.166752
0.167007
0.167007
0.166994
0.166931
0.166886
0.166858
0.166847
0.166735
0.166701
0.16664
0.166563
0.166481
0.166381
0.166247
0.166156
0.16604
0.166107
0.166107
0.166039
0.166154
0.166242
0.166375
0.166475
0.166557
0.166634
0.166695
0.16673
0.166684
0.166618
0.166498
0.166341
0.166166
0.165984
0.165807
0.165634
0.165607
0.16554
0.165539
0.165606
0.165632
0.165804
0.165979
0.166161
0.166336
0.166493
0.166613
0.166678
0.166671
0.166587
0.166432
0.166226
0.165993
0.165755
0.165532
0.165343
0.165217
0.165153
0.165152
0.165216
0.165341
0.165529
0.165751
0.165988
0.16622
0.166426
0.166582
0.166666
0.166673
0.16658
0.166408
0.166179
0.16592
0.165658
0.165416
0.165218
0.165093
0.165024
0.165023
0.165092
0.165216
0.165413
0.165654
0.165916
0.166174
0.166403
0.166575
0.166668
0.165105
0.165046
0.16494
0.164807
0.164667
0.164537
0.164427
0.164345
0.164307
0.164283
0.164283
0.164307
0.164345
0.164426
0.164536
0.164666
0.164806
0.164939
0.165045
0.165104
0.165128
0.165077
0.164986
0.164872
0.164755
0.164646
0.164548
0.164471
0.164422
0.164402
0.164402
0.164422
0.16447
0.164548
0.164645
0.164755
0.164872
0.164985
0.165076
0.165127
0.165189
0.165154
0.165093
0.165021
0.164954
0.164892
0.164837
0.164756
0.164808
0.164762
0.164762
0.164807
0.164755
0.164837
0.164892
0.164953
0.165021
0.165092
0.165153
0.165188
0.165306
0.165297
0.165286
0.16528
0.165288
0.165294
0.16524
0.16525
0.16515
0.165244
0.165244
0.16515
0.16525
0.16524
0.165294
0.165287
0.16528
0.165285
0.165296
0.165305
0.165498
0.165527
0.16559
0.165681
0.165806
0.165872
0.165958
0.165689
0.165819
0.165908
0.165832
0.166029
0.165689
0.165957
0.165872
0.165805
0.16568
0.165589
0.165526
0.165497
0.165769
0.165847
0.166011
0.166234
0.166474
0.166755
0.166563
0.166599
0.166604
0.166479
0.166409
0.166465
0.166775
0.166562
0.166755
0.166473
0.166233
0.16601
0.165846
0.165768
0.166102
0.166236
0.166534
0.166888
0.167439
0.167583
0.167672
0.167461
0.16721
0.167026
0.16694
0.167068
0.167404
0.167583
0.167583
0.167439
0.166887
0.166533
0.166235
0.166101
0.166452
0.166648
0.167059
0.167705
0.168245
0.168921
0.169017
0.168688
0.33718
0.343445
0.358627
0.168824
0.169144
0.168244
0.167705
0.167058
0.166647
0.166451
0.16677
0.167011
0.167659
0.168346
0.169411
0.170458
0.170742
0.245821
0.276124
0.272675
0.351112
0.318155
0.170825
0.169973
0.168345
0.167658
0.16701
0.166769
0.166946
0.16723
0.167934
0.168912
0.170274
0.171494
0.172384
0.364465
0.276318
0.304475
0.304474
0.357063
0.35528
0.172229
0.170863
0.168911
0.167932
0.167228
0.166945
0.166947
0.16723
0.167934
0.168913
0.170352
0.171697
0.173001
0.342836
0.273111
0.304472
0.30447
0.358209
0.348604
0.369758
0.17266
0.17091
0.168912
0.167932
0.167228
0.166945
0.166771
0.167012
0.16766
0.168347
0.170044
0.170969
0.172218
0.350946
0.35623
0.357672
0.374602
0.35843
0.171807
0.170063
0.168345
0.167658
0.16701
0.166769
0.166454
0.16665
0.167061
0.167708
0.168248
0.169841
0.17038
0.31842
0.350122
0.349044
0.356272
0.365375
0.169495
0.168248
0.167704
0.167058
0.166647
0.166451
0.166104
0.166239
0.166537
0.166891
0.167443
0.167587
0.168243
0.168331
0.369857
0.167823
0.167525
0.167442
0.166882
0.166532
0.166235
0.1661
0.165772
0.165849
0.166014
0.166237
0.166478
0.166759
0.166568
0.167074
0.167144
0.166921
0.166818
0.166869
0.166622
0.166531
0.166729
0.166466
0.166228
0.166007
0.165844
0.165767
0.165502
0.16553
0.165593
0.165685
0.16581
0.165877
0.165963
0.165695
0.166201
0.166156
0.165987
0.165812
0.165698
0.165964
0.165864
0.165802
0.165677
0.165587
0.165524
0.165496
0.16531
0.1653
0.16529
0.165284
0.165292
0.165299
0.165245
0.165256
0.165156
0.16525
0.16525
0.165155
0.165254
0.16524
0.165291
0.165285
0.165278
0.165284
0.165295
0.165304
0.165192
0.165157
0.165097
0.165025
0.164958
0.164897
0.164842
0.164761
0.164813
0.164768
0.164768
0.164812
0.164759
0.164838
0.164891
0.164952
0.165019
0.165091
0.165151
0.165187
0.165132
0.165081
0.16499
0.164876
0.164759
0.16465
0.164553
0.164476
0.164428
0.164407
0.164407
0.164427
0.164474
0.16455
0.164646
0.164754
0.164871
0.164984
0.165075
0.165126
0.165108
0.165049
0.164944
0.164811
0.164671
0.164541
0.164432
0.16435
0.164313
0.164288
0.164288
0.164312
0.164348
0.164429
0.164537
0.164666
0.164806
0.164939
0.165044
0.165103
0.1638
0.163758
0.163687
0.163605
0.163532
0.163481
0.163454
0.163446
0.163467
0.163475
0.163475
0.163467
0.163446
0.163454
0.163481
0.163532
0.163604
0.163686
0.163757
0.163799
0.163831
0.163794
0.163733
0.163665
0.163609
0.163573
0.163552
0.163543
0.16354
0.163559
0.163559
0.16354
0.163543
0.163552
0.163572
0.163608
0.163664
0.163732
0.163793
0.16383
0.163907
0.163881
0.163841
0.163802
0.163784
0.163786
0.163803
0.163779
0.163899
0.163861
0.163861
0.163899
0.163778
0.163802
0.163786
0.163784
0.163802
0.16384
0.16388
0.163906
0.164044
0.164037
0.164032
0.164041
0.164077
0.16413
0.164112
0.164198
0.164106
0.164237
0.164237
0.164106
0.164198
0.164112
0.164129
0.164076
0.16404
0.164031
0.164036
0.164043
0.16426
0.16428
0.164331
0.164409
0.164539
0.164616
0.164781
0.164478
0.164658
0.164769
0.164683
0.164949
0.164478
0.164781
0.164616
0.164539
0.164409
0.16433
0.164279
0.164259
0.164552
0.164608
0.164735
0.16491
0.165101
0.165434
0.165188
0.165267
0.165293
0.16513
0.165048
0.16513
0.165524
0.165188
0.165434
0.165101
0.16491
0.164735
0.164607
0.164551
0.164898
0.164993
0.165222
0.165449
0.165939
0.165955
0.166049
0.16591
0.165723
0.165531
0.165443
0.165589
0.165972
0.166021
0.165955
0.165939
0.165449
0.165222
0.164992
0.164897
0.165251
0.165385
0.16568
0.166153
0.166421
0.166963
0.166996
0.166871
0.306366
0.312782
0.327656
0.166949
0.167146
0.166422
0.166153
0.16568
0.165384
0.16525
0.165565
0.165714
0.166221
0.166608
0.167354
0.168016
0.168124
0.214008
0.242908
0.238328
0.31707
0.286443
0.168268
0.167711
0.166608
0.166221
0.165713
0.165564
0.165737
0.165924
0.166425
0.167083
0.168001
0.168604
0.169106
0.333663
0.243202
0.301381
0.30138
0.316704
0.321701
0.169026
0.168264
0.167083
0.166425
0.165923
0.165736
0.165738
0.165924
0.166426
0.167083
0.168015
0.168698
0.169469
0.312191
0.238806
0.301379
0.301379
0.316676
0.313897
0.339118
0.169239
0.168191
0.167083
0.166425
0.165923
0.165736
0.165566
0.165715
0.166223
0.16661
0.167921
0.168269
0.16903
0.316884
0.315852
0.316177
0.337829
0.325294
0.168727
0.167556
0.166609
0.166221
0.165713
0.165564
0.165253
0.165387
0.165683
0.166156
0.166424
0.167721
0.167996
0.286717
0.316382
0.31425
0.323068
0.333868
0.167177
0.166427
0.166152
0.16568
0.165384
0.16525
0.164901
0.164995
0.165225
0.165452
0.165943
0.165959
0.166465
0.166614
0.339211
0.16605
0.165886
0.165942
0.165443
0.16522
0.164991
0.164897
0.164555
0.164611
0.164738
0.164913
0.165105
0.165439
0.165194
0.165661
0.165742
0.165464
0.165347
0.165397
0.16516
0.165146
0.165402
0.165091
0.164904
0.164732
0.164606
0.16455
0.164263
0.164283
0.164335
0.164413
0.164543
0.164621
0.164787
0.164484
0.16496
0.164893
0.16468
0.16449
0.164489
0.16479
0.164607
0.164534
0.164405
0.164328
0.164277
0.164258
0.164048
0.16404
0.164036
0.164044
0.164081
0.164134
0.164117
0.164204
0.164112
0.164244
0.164244
0.164112
0.164202
0.164111
0.164125
0.164073
0.164038
0.16403
0.164035
0.164042
0.16391
0.163884
0.163844
0.163806
0.163788
0.163791
0.163808
0.163784
0.163905
0.163867
0.163867
0.163905
0.163783
0.163805
0.163785
0.163782
0.1638
0.163838
0.163878
0.163905
0.163835
0.163798
0.163737
0.163669
0.163613
0.163578
0.163557
0.163548
0.163545
0.163564
0.163564
0.163545
0.163547
0.163554
0.163573
0.163608
0.163663
0.163731
0.163792
0.163829
0.163804
0.163762
0.163691
0.163609
0.163537
0.163486
0.163459
0.163451
0.163473
0.163481
0.16348
0.163472
0.16345
0.163456
0.163482
0.163532
0.163604
0.163685
0.163756
0.163799
0.162597
0.162562
0.162506
0.162453
0.162424
0.162431
0.162472
0.162529
0.162608
0.162648
0.162648
0.162608
0.162529
0.162471
0.162431
0.162423
0.162452
0.162506
0.162561
0.162596
0.162626
0.162592
0.162541
0.162493
0.162473
0.162489
0.16253
0.162581
0.162623
0.162687
0.162687
0.162623
0.162581
0.162529
0.162489
0.162472
0.162492
0.16254
0.162591
0.162625
0.162698
0.162669
0.162627
0.162595
0.162598
0.162642
0.162718
0.162742
0.162938
0.162913
0.162913
0.162938
0.162742
0.162718
0.162642
0.162598
0.162594
0.162627
0.162669
0.162697
0.162834
0.162815
0.162792
0.162784
0.16282
0.162898
0.162902
0.16306
0.162972
0.163159
0.16316
0.162972
0.16306
0.162902
0.162897
0.16282
0.162783
0.162791
0.162814
0.162833
0.163051
0.163049
0.163063
0.163099
0.163207
0.163273
0.163513
0.163166
0.1634
0.163561
0.163465
0.163824
0.163166
0.163514
0.163273
0.163207
0.163098
0.163062
0.163048
0.16305
0.163349
0.163369
0.163438
0.163539
0.163662
0.164041
0.163726
0.163842
0.163936
0.16377
0.163674
0.163763
0.164231
0.163726
0.164042
0.163662
0.163539
0.163438
0.163369
0.163348
0.1637
0.163744
0.163892
0.163981
0.164417
0.1643
0.164394
0.164326
0.164212
0.164065
0.163994
0.164138
0.164526
0.164427
0.164301
0.164417
0.163981
0.163892
0.163743
0.163699
0.164054
0.16412
0.164297
0.164609
0.164644
0.165089
0.165098
0.16511
0.275621
0.282076
0.296835
0.165157
0.165278
0.164645
0.16461
0.164297
0.16412
0.164054
0.16437
0.164426
0.164815
0.164926
0.165428
0.165895
0.165897
0.183142
0.213148
0.208414
0.286151
0.255384
0.166109
0.165666
0.164927
0.164815
0.164426
0.16437
0.164542
0.164634
0.164973
0.165363
0.165966
0.166236
0.16654
0.302912
0.213463
0.283327
0.283327
0.286154
0.290919
0.166511
0.166017
0.165364
0.164973
0.164634
0.164542
0.164542
0.164635
0.164973
0.165364
0.165938
0.16626
0.166771
0.281522
0.208882
0.283324
0.283321
0.286194
0.283018
0.308415
0.166609
0.16584
0.165365
0.164973
0.164634
0.164542
0.164372
0.164427
0.164816
0.164928
0.166038
0.166004
0.166524
0.285969
0.285326
0.285702
0.306485
0.294137
0.166251
0.165293
0.164928
0.164816
0.164426
0.164371
0.164056
0.164122
0.164299
0.164612
0.164648
0.165818
0.165947
0.255665
0.285568
0.283363
0.291963
0.302857
0.165045
0.164654
0.164609
0.164298
0.16412
0.164054
0.163703
0.163746
0.163895
0.163985
0.164421
0.164305
0.164743
0.164924
0.308469
0.16425
0.164223
0.164424
0.163976
0.163891
0.163743
0.163699
0.163352
0.163372
0.163442
0.163543
0.163666
0.164046
0.163732
0.164202
0.164326
0.164035
0.163912
0.163929
0.163603
0.163668
0.164005
0.16365
0.163533
0.163435
0.163367
0.163347
0.163054
0.163052
0.163066
0.163103
0.163212
0.163278
0.163519
0.163172
0.163643
0.163569
0.163297
0.163054
0.163181
0.163527
0.163263
0.163202
0.163094
0.16306
0.163047
0.16305
0.162838
0.162818
0.162796
0.162788
0.162825
0.162903
0.162908
0.163066
0.162979
0.163167
0.163167
0.162979
0.163065
0.162901
0.162893
0.162817
0.162781
0.162789
0.162813
0.162832
0.162702
0.162673
0.162631
0.162599
0.162603
0.162647
0.162723
0.162748
0.162945
0.16292
0.16292
0.162945
0.162748
0.16272
0.162642
0.162597
0.162593
0.162625
0.162667
0.162696
0.16263
0.162596
0.162545
0.162497
0.162477
0.162494
0.162535
0.162587
0.162629
0.162693
0.162693
0.162629
0.162586
0.162532
0.162489
0.162472
0.162492
0.162539
0.16259
0.162624
0.162601
0.162566
0.162511
0.162457
0.162428
0.162436
0.162477
0.162535
0.162614
0.162654
0.162654
0.162614
0.162534
0.162474
0.162432
0.162423
0.162452
0.162505
0.16256
0.162595
0.161534
0.161497
0.161442
0.161397
0.161392
0.161442
0.16154
0.161661
0.161795
0.161861
0.161861
0.161795
0.161661
0.16154
0.161442
0.161391
0.161396
0.161441
0.161496
0.161534
0.161552
0.161512
0.161452
0.161402
0.161394
0.161444
0.161533
0.161643
0.161724
0.161791
0.161791
0.161724
0.161643
0.161533
0.161443
0.161394
0.161401
0.161451
0.161511
0.161551
0.161607
0.161563
0.161496
0.161439
0.161435
0.1615
0.161622
0.161696
0.161976
0.161949
0.161949
0.161976
0.161696
0.161622
0.161499
0.161435
0.161439
0.161495
0.161562
0.161606
0.161724
0.161677
0.161607
0.161545
0.161544
0.161619
0.161614
0.161845
0.161754
0.16202
0.16202
0.161754
0.161846
0.161614
0.161619
0.161544
0.161545
0.161606
0.161676
0.161723
0.161926
0.161882
0.161826
0.161775
0.161821
0.161836
0.162156
0.16173
0.162032
0.162269
0.162159
0.162652
0.161731
0.162156
0.161836
0.161821
0.161774
0.161825
0.161882
0.161926
0.162219
0.162185
0.162161
0.162143
0.162147
0.162583
0.162175
0.162295
0.162499
0.162339
0.162226
0.162316
0.162889
0.162176
0.162584
0.162147
0.162143
0.162161
0.162184
0.162219
0.162574
0.162547
0.162587
0.162481
0.162861
0.162607
0.162658
0.162665
0.162616
0.162528
0.162485
0.162625
0.163029
0.16277
0.162609
0.162862
0.162482
0.162587
0.162547
0.162573
0.162936
0.162917
0.162959
0.163071
0.162861
0.163223
0.163224
0.163345
0.24572
0.252213
0.266908
0.16338
0.163453
0.162863
0.163072
0.16296
0.162918
0.162936
0.163262
0.163208
0.163487
0.163282
0.163571
0.163936
0.163827
0.153307
0.184268
0.179627
0.256623
0.225365
0.164128
0.163738
0.163284
0.163488
0.163208
0.163262
0.163434
0.163392
0.163599
0.163731
0.164077
0.164129
0.164292
0.273017
0.184587
0.258596
0.258595
0.257543
0.261424
0.16431
0.163945
0.163734
0.163601
0.163393
0.163434
0.163434
0.163393
0.1636
0.163732
0.164016
0.1641
0.164459
0.251678
0.180098
0.258591
0.258587
0.257911
0.25365
0.278549
0.164333
0.163658
0.163734
0.163601
0.163394
0.163435
0.163263
0.163209
0.163488
0.163284
0.164321
0.16395
0.16432
0.256444
0.256735
0.257433
0.277345
0.264292
0.16404
0.163102
0.163286
0.163489
0.163209
0.163263
0.162938
0.16292
0.162961
0.163074
0.162865
0.164055
0.164052
0.225643
0.256038
0.253956
0.262176
0.272837
0.162951
0.162878
0.163073
0.162962
0.162919
0.162937
0.162576
0.162549
0.16259
0.162485
0.162865
0.162613
0.163003
0.163213
0.278576
0.162358
0.162515
0.162876
0.162476
0.162587
0.162546
0.162574
0.162222
0.162188
0.162165
0.162147
0.162152
0.162589
0.162181
0.162662
0.162841
0.162541
0.162409
0.162378
0.161902
0.162095
0.162541
0.162135
0.162136
0.162159
0.162183
0.162218
0.16193
0.161886
0.161829
0.161779
0.161825
0.161842
0.162162
0.161737
0.162231
0.16214
0.161784
0.161443
0.161751
0.162176
0.161826
0.161816
0.161771
0.161823
0.16188
0.161925
0.161727
0.16168
0.161611
0.161549
0.161549
0.161624
0.16162
0.161852
0.161762
0.162029
0.162029
0.161763
0.161851
0.161613
0.161614
0.161541
0.161542
0.161604
0.161674
0.161722
0.161611
0.161567
0.1615
0.161444
0.16144
0.161505
0.161627
0.161702
0.161983
0.161957
0.161957
0.161983
0.161702
0.161625
0.161499
0.161434
0.161437
0.161494
0.16156
0.161605
0.161556
0.161516
0.161456
0.161406
0.161399
0.161449
0.161539
0.161649
0.16173
0.161798
0.161798
0.16173
0.161649
0.161536
0.161444
0.161393
0.1614
0.16145
0.16151
0.16155
0.161538
0.161501
0.161446
0.161401
0.161396
0.161447
0.161546
0.161667
0.161802
0.161867
0.161867
0.161801
0.161666
0.161543
0.161443
0.161391
0.161396
0.16144
0.161495
0.161532
0.160636
0.16059
0.160525
0.160476
0.160483
0.16057
0.160725
0.160912
0.161114
0.161218
0.161218
0.161114
0.160912
0.160725
0.160569
0.160482
0.160475
0.160524
0.160589
0.160635
0.160638
0.160583
0.1605
0.160429
0.160415
0.160486
0.16062
0.160789
0.16092
0.161028
0.161028
0.16092
0.160789
0.16062
0.160486
0.160415
0.160428
0.160499
0.160582
0.160637
0.160666
0.160594
0.16048
0.160371
0.16033
0.160392
0.160557
0.160671
0.161072
0.161051
0.161051
0.161072
0.160671
0.160557
0.160392
0.16033
0.160371
0.160479
0.160593
0.160665
0.160753
0.160661
0.160512
0.160355
0.16027
0.160314
0.16027
0.160569
0.160445
0.160813
0.160813
0.160445
0.160569
0.16027
0.160314
0.16027
0.160354
0.160511
0.16066
0.160752
0.160934
0.160826
0.160656
0.16046
0.160387
0.160292
0.160682
0.160116
0.160521
0.160864
0.16073
0.16142
0.160117
0.160682
0.160293
0.160387
0.16046
0.160655
0.160826
0.160934
0.161222
0.161105
0.160939
0.16074
0.160541
0.161025
0.160483
0.160569
0.160932
0.160772
0.160634
0.160727
0.161464
0.160484
0.161026
0.160541
0.160741
0.160939
0.161104
0.161222
0.161588
0.16146
0.161346
0.160966
0.161234
0.160812
0.160747
0.160847
0.160856
0.160832
0.160824
0.160963
0.161414
0.160969
0.160814
0.161236
0.160967
0.161346
0.16146
0.161588
0.16197
0.161838
0.161693
0.16154
0.160989
0.16127
0.161261
0.161482
0.216322
0.222834
0.237489
0.161514
0.161567
0.160991
0.161542
0.161694
0.161838
0.161971
0.162326
0.162135
0.162287
0.161644
0.1617
0.162005
0.161746
0.124001
0.155641
0.151151
0.227588
0.195907
0.162167
0.161826
0.161647
0.162289
0.162136
0.162327
0.162514
0.162336
0.162373
0.162149
0.162239
0.1621
0.162119
0.24361
0.155968
0.232343
0.232342
0.229254
0.23241
0.162192
0.161892
0.162153
0.162375
0.162337
0.162515
0.162515
0.162336
0.162373
0.16215
0.162143
0.162024
0.162267
0.222316
0.151623
0.232338
0.232335
0.230044
0.224739
0.249175
0.162154
0.161465
0.162154
0.162376
0.162338
0.162516
0.162327
0.162136
0.162289
0.161646
0.162693
0.161943
0.162201
0.22741
0.228465
0.229568
0.248911
0.235009
0.16187
0.160807
0.161651
0.162292
0.162138
0.162328
0.161973
0.16184
0.161696
0.161543
0.160993
0.162338
0.162169
0.196184
0.226996
0.22504
0.232936
0.24337
0.160732
0.161015
0.161545
0.161698
0.16184
0.161972
0.161591
0.161462
0.161349
0.16097
0.161239
0.160818
0.161145
0.161392
0.249187
0.160247
0.160692
0.161263
0.160963
0.161347
0.161461
0.161589
0.161225
0.161108
0.160943
0.160745
0.160545
0.161031
0.16049
0.160976
0.161219
0.160895
0.160747
0.16065
0.159953
0.16037
0.160975
0.160528
0.160734
0.160937
0.161104
0.161221
0.160938
0.160829
0.160659
0.160465
0.160392
0.160298
0.160688
0.160124
0.160689
0.160538
0.160061
0.159558
0.160146
0.160714
0.160281
0.160384
0.160457
0.160654
0.160824
0.160933
0.160757
0.160665
0.160516
0.160359
0.160275
0.160319
0.160276
0.160576
0.160453
0.160822
0.160823
0.160455
0.160577
0.16027
0.160309
0.160267
0.160352
0.16051
0.160659
0.160751
0.160669
0.160598
0.160484
0.160376
0.160335
0.160398
0.160562
0.160677
0.16108
0.161059
0.161059
0.161081
0.160679
0.160561
0.160393
0.160329
0.160369
0.160478
0.160592
0.160664
0.160641
0.160587
0.160504
0.160433
0.16042
0.160492
0.160625
0.160795
0.160927
0.161035
0.161036
0.160928
0.160796
0.160624
0.160487
0.160415
0.160427
0.160498
0.160581
0.160635
0.160639
0.160594
0.160529
0.16048
0.160487
0.160575
0.160731
0.160918
0.161121
0.161224
0.161225
0.161121
0.160918
0.160729
0.160571
0.160483
0.160475
0.160523
0.160588
0.160632
0.159932
0.159877
0.159798
0.159742
0.159762
0.159894
0.160123
0.1604
0.160691
0.160845
0.160845
0.160691
0.160399
0.160123
0.159893
0.159761
0.159741
0.159797
0.159876
0.159932
0.159917
0.159843
0.159728
0.159625
0.159597
0.159689
0.159873
0.160109
0.160319
0.160482
0.160482
0.160319
0.160109
0.159873
0.159688
0.159597
0.159625
0.159727
0.159842
0.159916
0.159917
0.159807
0.159627
0.159441
0.159335
0.159378
0.15958
0.159699
0.160332
0.160331
0.160331
0.160332
0.159699
0.15958
0.159378
0.159335
0.15944
0.159627
0.159807
0.159916
0.159976
0.159821
0.159558
0.159258
0.159034
0.15901
0.1589
0.159222
0.159062
0.159545
0.159545
0.159062
0.159222
0.1589
0.159009
0.159033
0.159258
0.159558
0.15982
0.159975
0.16014
0.15994
0.159606
0.15919
0.158922
0.158605
0.159047
0.158234
0.158808
0.159297
0.159121
0.160104
0.158234
0.159047
0.158606
0.158922
0.15919
0.159605
0.15994
0.16014
0.160438
0.160202
0.159828
0.159357
0.158804
0.159287
0.158569
0.158553
0.159148
0.158978
0.158801
0.158901
0.159896
0.15857
0.159288
0.158805
0.159357
0.159829
0.160202
0.160437
0.160839
0.160566
0.160224
0.159461
0.159483
0.158824
0.158504
0.158745
0.158804
0.158845
0.158887
0.159026
0.159574
0.158896
0.158826
0.159485
0.159462
0.160225
0.160567
0.160839
0.161274
0.160969
0.160529
0.159995
0.158915
0.159092
0.159058
0.159382
0.186933
0.193478
0.208083
0.159422
0.159482
0.158918
0.159997
0.160531
0.16097
0.161274
0.161688
0.161312
0.161311
0.160011
0.159723
0.159965
0.159473
0.0947148
0.127132
0.122891
0.19858
0.16644
0.160065
0.159822
0.160014
0.161314
0.161314
0.161689
0.161911
0.161548
0.161394
0.160598
0.160359
0.159985
0.15981
0.214222
0.127468
0.206576
0.206575
0.200991
0.203449
0.159952
0.159696
0.160603
0.161397
0.161551
0.161912
0.161911
0.161549
0.161394
0.160598
0.160212
0.159855
0.159969
0.192962
0.123356