/*--------------------------------*- C++ -*----------------------------------*\
  =========                 |
  \\      /  F ield         | OpenFOAM: The Open Source CFD Toolbox
   \\    /   O peration     | Website:  https://openfoam.org
    \\  /    A nd           | Version:  7
     \\/     M anipulation  |
\*---------------------------------------------------------------------------*/
FoamFile
{
    version     2.0;
    format      ascii;
    class       volScalarField;
    location    "0.1";
    object      p;
}
// * * * * * * * * * * * * * * * * * * * * * * * * * * * * * * * * * * * * * //

dimensions      [0 2 -2 0 0 0 0];

internalField   nonuniform List<scalar> 
303246
(
0.245524
0.244777
0.243371
0.241471
0.239288
0.237052
0.234992
0.233316
0.232202
0.231723
0.231726
0.232211
0.23333
0.235012
0.237076
0.239316
0.241503
0.243405
0.244812
0.24556
0.244921
0.244201
0.242849
0.241028
0.238944
0.236818
0.234869
0.233289
0.232257
0.231745
0.231748
0.232265
0.233303
0.234889
0.236843
0.238973
0.24106
0.242884
0.244237
0.244957
0.24381
0.243148
0.241909
0.240256
0.238383
0.236488
0.234777
0.233406
0.232814
0.232465
0.232468
0.232823
0.233421
0.234798
0.236514
0.238414
0.240289
0.241945
0.243185
0.243849
0.242368
0.241799
0.240746
0.23937
0.237845
0.236324
0.23503
0.233986
0.233508
0.233528
0.233532
0.233518
0.234003
0.235053
0.236352
0.237878
0.239406
0.240785
0.241839
0.242409
0.240817
0.240385
0.239607
0.238641
0.237623
0.236586
0.235603
0.235146
0.234872
0.235503
0.235339
0.235345
0.235166
0.235629
0.236617
0.237659
0.23868
0.239649
0.240428
0.240861
0.239387
0.239145
0.238752
0.23838
0.238131
0.237407
0.237137
0.237179
0.238049
0.23921
0.238546
0.238718
0.236996
0.237002
0.237443
0.23817
0.238424
0.238798
0.239193
0.239435
0.238274
0.238287
0.238422
0.238973
0.2395
0.239739
0.240792
0.239244
0.240784
0.257031
0.243166
0.251857
0.239727
0.239126
0.240256
0.239546
0.23902
0.238473
0.238339
0.238327
0.237586
0.237924
0.238667
0.240075
0.242712
0.24482
0.245134
0.242627
1.49079
0.2433
0.245718
0.242762
0.240128
0.238722
0.237982
0.237645
0.237331
0.238174
0.239445
0.242147
0.245521
0.254357
0.260735
1.72389
2.55008
2.5543
2.49618
1.75944
0.258814
0.249649
0.242206
0.239506
0.238237
0.237395
0.237212
0.237968
0.239995
0.24385
0.249762
0.26221
0.296651
2.56567
3.18763
3.18759
3.19144
2.57295
0.28773
0.254803
0.243915
0.240062
0.238036
0.237281
0.237215
0.237971
0.239998
0.243854
0.250495
0.263902
0.294652
1.50008
2.5632
3.18771
3.18766
3.36045
2.68596
1.57264
0.288708
0.255936
0.243924
0.240071
0.238044
0.23729
0.23734
0.238183
0.239454
0.242157
0.248054
0.259852
0.295337
2.50931
3.20615
3.36802
2.80392
2.26285
0.281886
0.252346
0.242232
0.239533
0.238263
0.237421
0.2376
0.237938
0.238682
0.240092
0.242732
0.24831
0.254988
1.75084
2.57585
2.6871
2.27557
1.83347
0.250581
0.242806
0.240171
0.238764
0.238023
0.237686
0.238292
0.238306
0.238443
0.238995
0.239526
0.241713
0.2418
0.241458
1.56312
0.241637
0.241062
0.239603
0.239076
0.238528
0.238394
0.238381
0.23941
0.239168
0.238777
0.238407
0.23816
0.237441
0.238562
0.238152
0.240068
0.251265
0.242778
0.245997
0.23809
0.23686
0.237514
0.238238
0.238491
0.238865
0.239259
0.239501
0.240843
0.240411
0.239635
0.238671
0.237656
0.236623
0.235644
0.235192
0.236455
0.236649
0.236426
0.236029
0.235238
0.235707
0.236694
0.237736
0.238757
0.239725
0.240504
0.240936
0.242397
0.241828
0.240777
0.239403
0.237882
0.236363
0.235074
0.234034
0.233561
0.233587
0.233596
0.233588
0.234078
0.235133
0.236434
0.237961
0.239489
0.240867
0.241921
0.242491
0.243841
0.243179
0.241942
0.240291
0.238422
0.236529
0.234823
0.233455
0.232869
0.232526
0.232535
0.232895
0.233498
0.23488
0.236599
0.2385
0.240377
0.242032
0.243272
0.243935
0.244953
0.244234
0.242883
0.241065
0.238984
0.236861
0.234916
0.23334
0.232313
0.231808
0.231817
0.232338
0.233382
0.234973
0.23693
0.239062
0.24115
0.242974
0.244327
0.245047
0.245557
0.24481
0.243407
0.241509
0.239328
0.237095
0.23504
0.233368
0.232261
0.231789
0.231798
0.232286
0.233411
0.235097
0.237164
0.239406
0.241594
0.243496
0.244903
0.245651
0.235567
0.235282
0.234758
0.234072
0.233313
0.23257
0.231921
0.231434
0.231162
0.231039
0.231042
0.231171
0.231448
0.231941
0.232594
0.233341
0.234103
0.234792
0.235317
0.235602
0.235415
0.235165
0.234706
0.234113
0.233465
0.232835
0.232288
0.231872
0.23164
0.231537
0.23154
0.231649
0.231887
0.232308
0.232859
0.233493
0.234145
0.234741
0.235201
0.235452
0.235163
0.234981
0.234653
0.234245
0.233817
0.23341
0.23306
0.232813
0.23291
0.23288
0.232883
0.232919
0.232829
0.233082
0.233436
0.233848
0.234279
0.234689
0.235018
0.235201
0.234894
0.234816
0.234689
0.234562
0.234465
0.234364
0.234382
0.234153
0.234083
0.234353
0.234356
0.234094
0.234171
0.234406
0.234393
0.234498
0.234599
0.234727
0.234856
0.234935
0.234707
0.234769
0.234911
0.235161
0.235472
0.235759
0.235508
0.235515
0.235074
0.235527
0.235387
0.235539
0.235535
0.235534
0.235791
0.235509
0.235201
0.234953
0.234813
0.234752
0.234683
0.234919
0.235401
0.236116
0.237026
0.236946
0.238062
0.237588
0.237598
0.237861
0.237684
0.237559
0.237092
0.237456
0.236983
0.237067
0.23616
0.235447
0.234967
0.234732
0.234863
0.235308
0.236207
0.237666
0.238724
0.240271
0.240907
0.239289
0.23929
0.240906
0.240088
0.240742
0.239054
0.23931
0.240103
0.23877
0.237715
0.236259
0.235361
0.234916
0.235218
0.235879
0.237279
0.239215
0.241492
0.243526
0.244037
0.242146
1.12434
1.14141
1.1537
0.24271
0.24407
0.241544
0.23927
0.237336
0.235937
0.235277
0.235643
0.236428
0.238573
0.241087
0.24375
0.248947
0.252012
0.930578
0.744685
0.747286
1.09171
1.08179
0.251223
0.246519
0.241147
0.238636
0.236494
0.235709
0.235912
0.236918
0.239313
0.242611
0.246739
0.254085
0.262726
1.14969
0.747825
-1.17036
-1.17037
0.839481
1.05786
0.26073
0.249884
0.242677
0.239381
0.236988
0.235983
0.235914
0.236921
0.239316
0.242614
0.247155
0.255098
0.26513
1.1395
0.747822
-1.17018
-1.17024
0.831947
1.03161
1.17921
0.262796
0.250595
0.242687
0.239391
0.236998
0.235992
0.235652
0.236437
0.238582
0.241097
0.245533
0.251645
0.261744
1.09353
0.8429
0.83333
1.06322
1.12677
0.258739
0.247695
0.241175
0.238664
0.236523
0.235736
0.235231
0.235893
0.237294
0.239232
0.241512
0.245505
0.249435
1.08199
1.05118
1.03256
1.12693
1.15561
0.246237
0.241591
0.239315
0.23738
0.235981
0.23532
0.234881
0.235327
0.236227
0.237688
0.238749
0.241182
0.24142
0.241211
1.18132
0.240607
0.239301
0.238828
0.237774
0.236316
0.235418
0.234973
0.234705
0.234942
0.235425
0.236143
0.237056
0.236981
0.238666
0.238358
0.238753
0.24023
0.239658
0.239827
0.237533
0.236106
0.23705
0.237138
0.236231
0.235517
0.235036
0.2348
0.234733
0.234795
0.234939
0.235191
0.235506
0.235796
0.23555
0.235562
0.236447
0.236466
0.236307
0.23577
0.235612
0.235614
0.23587
0.235589
0.23528
0.235032
0.23489
0.234829
0.234923
0.234845
0.23472
0.234596
0.234501
0.234404
0.234427
0.234203
0.234138
0.234414
0.234424
0.234167
0.23425
0.234488
0.234477
0.234584
0.234684
0.234812
0.23494
0.235019
0.235193
0.235012
0.234686
0.23428
0.233856
0.233452
0.233107
0.232864
0.232967
0.232943
0.232953
0.232995
0.23291
0.233167
0.233524
0.233937
0.234368
0.234778
0.235107
0.235289
0.235447
0.235198
0.234741
0.234149
0.233504
0.232878
0.232336
0.231924
0.231698
0.231602
0.231611
0.231726
0.231968
0.232394
0.232949
0.233585
0.234236
0.234833
0.235293
0.235543
0.235599
0.235316
0.234793
0.234109
0.233354
0.232615
0.23197
0.231487
0.231221
0.231104
0.231113
0.231248
0.23153
0.232028
0.232685
0.233433
0.234196
0.234885
0.23541
0.235695
0.232469
0.23228
0.231943
0.23152
0.231082
0.230685
0.23037
0.230167
0.230088
0.230064
0.230066
0.230096
0.230181
0.230389
0.23071
0.23111
0.231551
0.231976
0.232315
0.232504
0.232403
0.232245
0.231965
0.231625
0.231288
0.230993
0.230766
0.230632
0.230599
0.230609
0.230612
0.230608
0.230647
0.230786
0.231018
0.231317
0.231657
0.231999
0.232281
0.232439
0.232314
0.232216
0.232052
0.231879
0.231743
0.231653
0.231607
0.231652
0.231963
0.232001
0.232005
0.231973
0.231667
0.231629
0.231679
0.231773
0.231913
0.232089
0.232254
0.232353
0.232273
0.232267
0.232281
0.232359
0.232519
0.232704
0.232839
0.233038
0.2331
0.233478
0.233481
0.233111
0.233055
0.232863
0.232733
0.232553
0.232396
0.23232
0.232307
0.232314
0.23235
0.232468
0.232721
0.233132
0.233678
0.234186
0.234556
0.234292
0.234197
0.234651
0.234514
0.23483
0.234312
0.234583
0.234219
0.233715
0.233172
0.232764
0.232512
0.232395
0.232594
0.232861
0.233409
0.234211
0.235202
0.236082
0.236053
0.235937
0.236393
0.236122
0.236035
0.236059
0.236438
0.236084
0.23612
0.235244
0.234256
0.233456
0.23291
0.232643
0.233006
0.233443
0.234338
0.235564
0.237167
0.237976
0.238122
0.238044
0.237449
0.237442
0.237339
0.237481
0.237575
0.23807
0.238019
0.237214
0.235614
0.234391
0.233497
0.23306
0.233536
0.234152
0.235456
0.237237
0.238996
0.240415
0.241324
0.240296
0.968883
0.97664
1.00823
0.240616
0.241206
0.23905
0.237294
0.235514
0.234212
0.233597
0.234065
0.234841
0.236766
0.238788
0.240907
0.244309
0.245328
0.82298
0.783942
0.775639
0.988048
0.95751
0.245122
0.242794
0.238851
0.236831
0.234908
0.234132
0.234389
0.235284
0.237416
0.240084
0.243073
0.24686
0.249818
1.0083
0.785806
1.19789
1.19785
0.931066
0.970364
0.249341
0.244801
0.240153
0.237488
0.235357
0.234463
0.234392
0.235287
0.237419
0.240087
0.243317
0.247441
0.251426
0.973498
0.774683
1.19793
1.19792
0.92818
0.940873
1.0119
0.250561
0.245214
0.240164
0.237498
0.235367
0.234472
0.234073
0.23485
0.236775
0.238798
0.24235
0.245525
0.24934
0.989156
0.931712
0.929239
0.974154
1.01441
0.248305
0.243133
0.238882
0.236861
0.234937
0.23416
0.233549
0.234166
0.235471
0.237254
0.239015
0.242408
0.2441
0.958459
0.963341
0.943537
1.01082
1.02798
0.242101
0.239104
0.237344
0.235563
0.234258
0.233642
0.233024
0.233462
0.234359
0.235586
0.237192
0.238005
0.239402
0.239569
1.01458
0.238469
0.238054
0.237288
0.235678
0.234454
0.233558
0.23312
0.232616
0.232884
0.233434
0.234238
0.235232
0.236117
0.236093
0.237009
0.237057
0.237228
0.237138
0.237076
0.236045
0.236154
0.236196
0.235323
0.234332
0.233531
0.232983
0.232715
0.232376
0.232494
0.23275
0.233163
0.233713
0.234224
0.2346
0.234341
0.235368
0.235235
0.235109
0.234565
0.234397
0.234679
0.234307
0.233803
0.233258
0.232847
0.232593
0.232476
0.232302
0.232296
0.232312
0.232393
0.232556
0.232745
0.232885
0.233089
0.233157
0.233542
0.233553
0.233189
0.233141
0.232952
0.232824
0.232645
0.232486
0.232409
0.232395
0.232401
0.232345
0.232248
0.232085
0.231915
0.231781
0.231695
0.231654
0.231704
0.232022
0.232067
0.232078
0.232052
0.231754
0.231719
0.231772
0.231867
0.232007
0.232181
0.232346
0.232443
0.232435
0.232278
0.232
0.231662
0.231328
0.231037
0.230815
0.230686
0.230659
0.230676
0.230686
0.230688
0.230734
0.230877
0.231112
0.231412
0.231752
0.232094
0.232374
0.232532
0.232501
0.232313
0.231978
0.231558
0.231124
0.23073
0.230419
0.230221
0.230148
0.230129
0.230139
0.230177
0.230268
0.23048
0.230804
0.231206
0.231647
0.232071
0.23241
0.232599
0.228901
0.228807
0.228656
0.228508
0.228417
0.228412
0.228493
0.228648
0.228836
0.228935
0.228938
0.228845
0.228662
0.228513
0.228436
0.228445
0.228539
0.22869
0.228842
0.228936
0.228918
0.22885
0.228749
0.228676
0.228679
0.228773
0.22894
0.229165
0.229422
0.229533
0.229536
0.229431
0.22918
0.228961
0.228798
0.228708
0.228708
0.228784
0.228886
0.228954
0.228992
0.228975
0.228977
0.229056
0.229252
0.229548
0.229898
0.2303
0.230948
0.231102
0.231105
0.230958
0.230316
0.22992
0.229575
0.229283
0.22909
0.229014
0.229013
0.22903
0.229183
0.229249
0.229412
0.229726
0.230208
0.23077
0.231262
0.231838
0.232098
0.232645
0.232649
0.23211
0.231856
0.231286
0.2308
0.230242
0.229762
0.229451
0.229289
0.229224
0.229547
0.229725
0.23011
0.230737
0.231603
0.232476
0.233242
0.233006
0.233048
0.233567
0.233417
0.233884
0.233026
0.23327
0.232509
0.231641
0.230778
0.230153
0.22977
0.229592
0.2301
0.230413
0.231068
0.232046
0.233307
0.234561
0.234338
0.23443
0.235069
0.234619
0.234519
0.234609
0.235324
0.23437
0.234599
0.233349
0.232091
0.231116
0.230463
0.230149
0.230805
0.231265
0.232224
0.233518
0.235324
0.235778
0.235949
0.236497
0.235829
0.235592
0.23553
0.235704
0.23605
0.236322
0.235822
0.235373
0.233569
0.232277
0.231319
0.230861
0.231579
0.232188
0.233496
0.235244
0.236623
0.237716
0.238728
0.238219
0.881315
0.889763
0.919587
0.238391
0.23852
0.236678
0.235302
0.233556
0.232249
0.23164
0.232278
0.233027
0.234928
0.236601
0.238128
0.240569
0.240921
0.73625
0.781046
0.774883
0.901648
0.863856
0.240866
0.239444
0.236666
0.234995
0.233095
0.232347
0.232675
0.233498
0.235552
0.237817
0.239777
0.241832
0.243338
0.922639
0.781609
0.938084
0.938054
0.938919
0.916964
0.243146
0.240651
0.23789
0.235627
0.233574
0.232751
0.232678
0.2335
0.235555
0.237821
0.239886
0.242131
0.24427
0.888095
0.775458
0.938126
0.938117
0.943525
0.90286
0.925104
0.243848
0.240843
0.237902
0.235638
0.233585
0.232762
0.232287
0.233036
0.234937
0.236611
0.239511
0.24106
0.24312
0.901879
0.938964
0.943751
0.926033
0.929776
0.242496
0.239245
0.236701
0.235028
0.233127
0.232378
0.231592
0.232202
0.233511
0.235261
0.236642
0.239545
0.2403
0.86466
0.911667
0.904151
0.92737
0.933705
0.238568
0.236741
0.235359
0.233609
0.232299
0.231689
0.230824
0.231284
0.232244
0.23354
0.23535
0.235807
0.237227
0.237674
0.926354
0.236205
0.235891
0.235459
0.233642
0.232346
0.231385
0.230925
0.230122
0.230437
0.231093
0.232073
0.233337
0.234596
0.234379
0.235535
0.235531
0.235458
0.235371
0.235334
0.234398
0.234448
0.234689
0.233439
0.232176
0.231197
0.23054
0.230225
0.229573
0.229752
0.230139
0.230768
0.231638
0.232515
0.233286
0.233056
0.234067
0.233897
0.233748
0.233125
0.23312
0.233375
0.232608
0.231737
0.230871
0.230242
0.229856
0.229677
0.229212
0.229278
0.229443
0.229759
0.230246
0.230812
0.231309
0.231891
0.232158
0.232712
0.232724
0.232193
0.231949
0.231384
0.230899
0.230341
0.229859
0.229545
0.229382
0.229315
0.229022
0.229007
0.22901
0.229092
0.229291
0.229592
0.229946
0.230354
0.231009
0.23117
0.231181
0.231042
0.230408
0.230017
0.229675
0.229382
0.229189
0.22911
0.229108
0.229123
0.22895
0.228882
0.228784
0.228713
0.228719
0.228818
0.228989
0.229221
0.229483
0.229601
0.229612
0.229515
0.229272
0.229057
0.228897
0.228808
0.228807
0.228881
0.228981
0.22905
0.228933
0.22884
0.228691
0.228545
0.228458
0.228457
0.228543
0.228703
0.228898
0.229004
0.229014
0.228929
0.228754
0.228608
0.228535
0.228545
0.228639
0.228789
0.22894
0.229035
0.225801
0.225762
0.225726
0.225762
0.225926
0.226235
0.226657
0.227132
0.227579
0.227832
0.227835
0.227588
0.227146
0.226677
0.226259
0.225954
0.225793
0.225759
0.225796
0.225836
0.22586
0.225838
0.225838
0.225933
0.226179
0.226581
0.22709
0.227635
0.228143
0.228453
0.228456
0.228152
0.22765
0.227111
0.226606
0.226208
0.225965
0.225873
0.225874
0.225896
0.226024
0.226038
0.226115
0.226334
0.226754
0.227355
0.228054
0.228794
0.229826
0.230125
0.230129
0.229836
0.228811
0.228076
0.227382
0.226785
0.226368
0.226151
0.226076
0.226061
0.226358
0.226437
0.226645
0.22707
0.227767
0.228631
0.229468
0.230429
0.230929
0.231709
0.231713
0.230941
0.230447
0.229493
0.228661
0.2278
0.227107
0.226684
0.226477
0.226399
0.226918
0.227092
0.227496
0.228217
0.229301
0.230499
0.231671
0.231496
0.231658
0.23239
0.232219
0.232843
0.231517
0.2317
0.230533
0.229339
0.228258
0.22754
0.227137
0.226963
0.227705
0.227999
0.228651
0.229696
0.231172
0.232771
0.23255
0.232835
0.233743
0.233222
0.233112
0.233203
0.234106
0.232582
0.23281
0.231216
0.229743
0.228699
0.228049
0.227755
0.228654
0.229079
0.230007
0.231313
0.233309
0.233621
0.233869
0.234847
0.234322
0.234128
0.234093
0.234287
0.234578
0.234498
0.233668
0.233359
0.231366
0.230062
0.229134
0.22871
0.229645
0.230196
0.231439
0.233158
0.234253
0.235224
0.236394
0.236289
0.808113
0.818454
0.845729
0.236312
0.236041
0.23431
0.233218
0.2315
0.230258
0.229707
0.230515
0.231181
0.233083
0.234462
0.235469
0.237616
0.237748
0.659787
0.719096
0.714518
0.828402
0.785352
0.237732
0.236607
0.23453
0.233152
0.231251
0.230585
0.231009
0.231763
0.233736
0.235727
0.236974
0.238194
0.239254
0.849863
0.719693
0.832125
0.832101
0.865216
0.850791
0.239142
0.237326
0.235804
0.233814
0.231842
0.231088
0.231012
0.231766
0.233739
0.235731
0.236978
0.238337
0.239871
0.817499
0.715368
0.832148
0.832143
0.867896
0.84197
0.854142
0.239545
0.237368
0.235818
0.233827
0.231854
0.2311
0.230523
0.23119
0.233092
0.234473
0.237037
0.23769
0.239194
0.828437
0.864858
0.867718
0.851763
0.856024
0.238652
0.235938
0.23457
0.233189
0.231286
0.230619
0.229658
0.23021
0.231454
0.233175
0.234273
0.237156
0.237465
0.786034
0.845667
0.842822
0.853781
0.854904
0.235573
0.234384
0.233283
0.23156
0.230314
0.229761
0.228672
0.229098
0.230027
0.231336
0.233334
0.23365
0.235141
0.235828
0.854679
0.233985
0.233743
0.233455
0.231448
0.230138
0.229207
0.228779
0.227727
0.228023
0.228676
0.229723
0.231203
0.232806
0.232592
0.233915
0.234107
0.234013
0.233922
0.233851
0.232667
0.232667
0.232914
0.231318
0.229838
0.228788
0.228132
0.227836
0.226944
0.227119
0.227525
0.228248
0.229336
0.230538
0.231717
0.231547
0.232714
0.232509
0.232328
0.231541
0.231622
0.231815
0.230643
0.229447
0.22836
0.227635
0.227228
0.227054
0.226387
0.226466
0.226676
0.227104
0.227804
0.228673
0.229516
0.230483
0.230991
0.231779
0.231792
0.231031
0.230549
0.2296
0.228771
0.227909
0.227212
0.226784
0.226574
0.226495
0.226054
0.226069
0.226148
0.226369
0.226793
0.227399
0.228103
0.228849
0.229888
0.230196
0.230209
0.229926
0.228911
0.228181
0.22749
0.226893
0.226473
0.226252
0.226174
0.226161
0.225892
0.22587
0.225872
0.225969
0.226219
0.226626
0.22714
0.227691
0.228206
0.228524
0.228536
0.228241
0.227748
0.227214
0.226712
0.226314
0.226069
0.225974
0.225973
0.225998
0.225833
0.225795
0.225762
0.2258
0.225967
0.226281
0.226708
0.227189
0.227643
0.227904
0.227916
0.227678
0.227243
0.226778
0.226364
0.226059
0.225897
0.225861
0.225896
0.225939
0.223121
0.223104
0.223127
0.22328
0.223639
0.224222
0.224971
0.225773
0.226496
0.226914
0.226917
0.226505
0.225788
0.224991
0.224246
0.223667
0.223311
0.22316
0.223138
0.223155
0.22319
0.223176
0.223209
0.22339
0.223805
0.224466
0.2253
0.226174
0.226944
0.227483
0.227487
0.226954
0.226189
0.225321
0.224492
0.223834
0.223422
0.223243
0.223211
0.223226
0.223388
0.223384
0.223447
0.2237
0.22425
0.225094
0.226128
0.22723
0.228708
0.229198
0.229201
0.228718
0.227246
0.22615
0.225121
0.224281
0.223734
0.223482
0.223421
0.223426
0.2238
0.223828
0.223968
0.224373
0.22517
0.226277
0.227464
0.228863
0.229654
0.230762
0.230766
0.229666
0.228882
0.227489
0.226307
0.225205
0.22441
0.224007
0.223868
0.223842
0.224498
0.224593
0.224884
0.22555
0.226748
0.22825
0.229884
0.229782
0.230058
0.231132
0.230934
0.23176
0.229804
0.229913
0.228285
0.226787
0.225592
0.224927
0.224638
0.224543
0.225486
0.225678
0.226187
0.227159
0.228793
0.230772
0.230517
0.231082
0.232405
0.231829
0.231709
0.231766
0.232863
0.230551
0.230813
0.228838
0.227206
0.226236
0.225728
0.225536
0.226675
0.226984
0.227755
0.228964
0.231166
0.231319
0.231639
0.233196
0.232853
0.232757
0.232782
0.232958
0.233133
0.232647
0.231369
0.231218
0.229018
0.22781
0.22704
0.226731
0.227903
0.228324
0.229404
0.231039
0.231886
0.232846
0.234294
0.234517
0.734622
0.745876
0.771868
0.23441
0.233742
0.231945
0.231101
0.229467
0.228388
0.227967
0.22897
0.229479
0.231352
0.232422
0.232933
0.235185
0.235225
0.584524
0.645251
0.640417
0.75285
0.709655
0.235245
0.234127
0.232493
0.231424
0.229551
0.229042
0.229579
0.230212
0.232108
0.233884
0.234544
0.235348
0.236287
0.776537
0.645985
0.748607
0.748599
0.78719
0.778181
0.2362
0.23451
0.233965
0.232189
0.230293
0.22966
0.229582
0.230215
0.232111
0.233888
0.234467
0.235398
0.236753
0.745219
0.64139
0.748628
0.748617
0.78754
0.770633
0.781817
0.236458
0.234449
0.233981
0.232204
0.230306
0.229673
0.228979
0.229488
0.231362
0.232433
0.234902
0.234959
0.236351
0.752884
0.7867
0.787215
0.772264
0.78135
0.235741
0.232946
0.232538
0.231466
0.22959
0.229079
0.227917
0.228338
0.22942
0.231056
0.231906
0.23509
0.235152
0.7103
0.773
0.771271
0.779003
0.779158
0.232834
0.232033
0.231176
0.229535
0.22845
0.228026
0.226694
0.227003
0.227775
0.228987
0.231192
0.231349
0.233105
0.234075
0.782021
0.231753
0.231453
0.231328
0.229113
0.227896
0.227119
0.226807
0.225508
0.225702
0.226212
0.227187
0.228825
0.230808
0.230559
0.232204
0.23272
0.232646
0.23258
0.232404
0.230762
0.230644
0.230933
0.228955
0.227314
0.226334
0.225819
0.225624
0.224524
0.224619
0.224912
0.225581
0.226784
0.22829
0.22993
0.229835
0.231259
0.231015
0.230802
0.229737
0.229924
0.230041
0.228411
0.226908
0.225705
0.225032
0.224736
0.22464
0.223829
0.223858
0.223999
0.224407
0.225208
0.226319
0.227512
0.228918
0.229718
0.230835
0.230851
0.229764
0.228994
0.227609
0.226429
0.225324
0.224524
0.224115
0.223971
0.223941
0.223418
0.223415
0.22348
0.223735
0.224289
0.225138
0.226178
0.227286
0.228773
0.229272
0.229287
0.228816
0.227356
0.226265
0.225239
0.224397
0.223846
0.22359
0.223525
0.223528
0.223221
0.223208
0.223244
0.223426
0.223845
0.224512
0.225351
0.226231
0.22701
0.227557
0.227571
0.227049
0.226294
0.225431
0.224605
0.223946
0.223532
0.22335
0.223315
0.223329
0.223153
0.223137
0.223163
0.223319
0.22368
0.224267
0.225022
0.225831
0.226561
0.226988
0.227001
0.226599
0.22589
0.225098
0.224356
0.223777
0.223419
0.223266
0.223241
0.223258
0.220896
0.220878
0.22092
0.221145
0.221667
0.222522
0.223632
0.224825
0.225875
0.226458
0.226461
0.225884
0.22484
0.223652
0.222546
0.221695
0.221175
0.220952
0.220911
0.220931
0.220954
0.220914
0.220922
0.221121
0.221649
0.222549
0.223733
0.225019
0.226104
0.2267
0.226703
0.226114
0.225035
0.223754
0.222574
0.221678
0.221152
0.220955
0.220949
0.220989
0.221146
0.221073
0.22103
0.221205
0.221786
0.222823
0.224206
0.22578
0.227747
0.228411
0.228415
0.227757
0.225797
0.224228
0.22285
0.221817
0.221239
0.221066
0.22111
0.221183
0.221594
0.221498
0.221435
0.221652
0.222405
0.223673
0.22518
0.227152
0.228305
0.229883
0.229887
0.228317
0.227171
0.225206
0.223704
0.222439
0.221689
0.221474
0.221538
0.221636
0.222405
0.222322
0.222323
0.222723
0.22387
0.225636
0.227828
0.227799
0.228172
0.229765
0.229534
0.230638
0.227822
0.227859
0.225672
0.22391
0.222764
0.222367
0.222367
0.222449
0.2236
0.223577
0.22374
0.2244
0.226073
0.228509
0.2282
0.22895
0.231007
0.230346
0.230215
0.230215
0.231585
0.228236
0.228551
0.226119
0.224448
0.223788
0.223626
0.223651
0.225075
0.225148
0.225552
0.226395
0.228833
0.228805
0.229113
0.231474
0.231295
0.231359
0.231478
0.231621
0.231625
0.230664
0.228855
0.228886
0.22645
0.225608
0.225204
0.225131
0.226617
0.226811
0.22756
0.228885
0.229415
0.230281
0.232271
0.23282
0.659349
0.67093
0.696499
0.232583
0.231441
0.229477
0.228948
0.227624
0.226876
0.226682
0.227947
0.228207
0.229889
0.230479
0.23036
0.233043
0.232997
0.508443
0.56903
0.563776
0.676275
0.633518
0.233042
0.231764
0.230553
0.229964
0.228281
0.228021
0.22869
0.228995
0.230762
0.23232
0.232335
0.2329
0.233859
0.701335
0.569847
0.670789
0.670779
0.709997
0.703059
0.233773
0.231905
0.232406
0.230847
0.22908
0.228775
0.228693
0.228998
0.230765
0.232324
0.232192
0.232889
0.234296
0.670379
0.564839
0.670801
0.670788
0.709458
0.695691
0.706986
0.233972
0.231769
0.232424
0.230864
0.229095
0.228789
0.227956
0.228216
0.229899
0.23049
0.233017
0.23254
0.234021
0.676326
0.709454
0.709101
0.693605
0.705274
0.23325
0.229959
0.230607
0.230012
0.228325
0.228062
0.22663
0.226825
0.227576
0.228903
0.229436
0.233232
0.233077
0.634116
0.697747
0.696222
0.702972
0.70303
0.230032
0.229584
0.229038
0.227702
0.226944
0.226746
0.225093
0.225167
0.225573
0.226419
0.22886
0.228836
0.230997
0.232338
0.707026
0.229271
0.228951
0.229016
0.22656
0.225706
0.225291
0.225214
0.223623
0.2236
0.223764
0.224428
0.226105
0.228546
0.228243
0.230305
0.231209
0.231234
0.231207
0.230864
0.228523
0.228342
0.228695
0.226257
0.224571
0.223899
0.223726
0.223744
0.222431
0.222349
0.222351
0.222754
0.223906
0.225677
0.227875
0.227853
0.229617
0.229319
0.229074
0.227576
0.227962
0.228007
0.225819
0.224048
0.222891
0.222481
0.222472
0.222551
0.221622
0.221527
0.221466
0.221686
0.222442
0.223716
0.225229
0.227208
0.22837
0.22996
0.229978
0.228425
0.227298
0.225341
0.223842
0.222572
0.221814
0.221589
0.221646
0.221739
0.221176
0.221104
0.221063
0.221241
0.221825
0.222867
0.224256
0.225837
0.227814
0.228489
0.228506
0.227863
0.225917
0.224355
0.222979
0.221942
0.221359
0.221179
0.221217
0.221288
0.220986
0.220948
0.220956
0.221157
0.221689
0.222594
0.223783
0.225077
0.226171
0.226777
0.226793
0.226216
0.225148
0.223873
0.222695
0.221796
0.221267
0.221065
0.221055
0.221092
0.220926
0.220909
0.220954
0.221183
0.221708
0.222567
0.223683
0.224883
0.225942
0.226534
0.22655
0.225984
0.224949
0.223766
0.222662
0.221811
0.221288
0.221061
0.221018
0.221033
0.219192
0.219158
0.219197
0.21948
0.220175
0.22135
0.22291
0.224612
0.226117
0.226959
0.226962
0.226126
0.224627
0.22293
0.221374
0.220202
0.21951
0.219228
0.219191
0.219227
0.219224
0.219134
0.219071
0.21924
0.219852
0.221004
0.222598
0.224405
0.225963
0.226825
0.226828
0.225973
0.22442
0.222619
0.221029
0.219881
0.219271
0.219103
0.219167
0.219259
0.219392
0.219201
0.218962
0.218945
0.219452
0.220632
0.222383
0.224538
0.227185
0.228139
0.228142
0.227195
0.224555
0.222406
0.22066
0.219483
0.218978
0.218997
0.219238
0.219428
0.219865
0.219563
0.21914
0.218962
0.219467
0.220782
0.222529
0.225265
0.226895
0.22913
0.229134
0.226907
0.225285
0.222555
0.220813
0.219502
0.218998
0.219178
0.219602
0.219905
0.220805
0.220425
0.219906
0.219733
0.220557
0.22246
0.225351
0.22537
0.225852
0.228215
0.227945
0.229443
0.225394
0.225382
0.222497
0.220597
0.219775
0.219949
0.220469
0.220849
0.222265
0.221871
0.221399
0.221381
0.222812
0.225781
0.225363
0.226308
0.22947
0.228658
0.228517
0.228439
0.230215
0.225401
0.225825
0.222859
0.221429
0.221447
0.22192
0.222315
0.224126
0.223782
0.223496
0.223514
0.226144
0.225828
0.22601
0.229544
0.229506
0.229805
0.230069
0.230144
0.229916
0.228362
0.22588
0.226199
0.22357
0.223552
0.223839
0.224182
0.226113
0.225893
0.225993
0.226649
0.226626
0.227321
0.230137
0.231055
0.582688
0.594327
0.61977
0.230661
0.228924
0.22669
0.226714
0.226058
0.225957
0.226178
0.227844
0.227698
0.228921
0.228614
0.227539
0.230994
0.230764
0.43149
0.49237
0.486958
0.599427
0.556489
0.230789
0.229307
0.228691
0.228998
0.227773
0.227919
0.228815
0.228706
0.230038
0.231049
0.230183
0.23056
0.231629
0.624655
0.493203
0.595923
0.595913
0.633839
0.626674
0.231515
0.229223
0.231139
0.230127
0.228793
0.228901
0.228818
0.228709
0.230041
0.231053
0.22998
0.230509
0.232128
0.593818
0.488031
0.595935
0.595927
0.633261
0.619495
0.630438
0.231709
0.229036
0.23116
0.230146
0.22881
0.228917
0.227853
0.227707
0.228931
0.228626
0.231269
0.230172
0.231903
0.599494
0.63331
0.632897
0.615554
0.628388
0.230833
0.226651
0.228755
0.229053
0.227822
0.227964
0.226127
0.225907
0.226009
0.226667
0.226648
0.231458
0.230983
0.557064
0.621399
0.619998
0.626095
0.625949
0.226816
0.226825
0.226822
0.226148
0.226033
0.226248
0.224145
0.223801
0.223516
0.223538
0.226172
0.225861
0.228607
0.230472
0.630431
0.22623
0.225997
0.226359
0.2237
0.223662
0.223934
0.224272
0.222287
0.221894
0.221423
0.221409
0.222845
0.225819
0.225407
0.228067
0.229427
0.229645
0.229677
0.229075
0.225688
0.225529
0.226007
0.223026
0.221573
0.221571
0.222029
0.222414
0.22083
0.220451
0.219934
0.219764
0.220593
0.222501
0.225398
0.225425
0.22767
0.227268
0.226997
0.224845
0.225563
0.225561
0.222673
0.220759
0.219918
0.220075
0.220581
0.220955
0.219893
0.219592
0.219171
0.218996
0.219505
0.220824
0.222577
0.225321
0.226961
0.22921
0.229231
0.227026
0.22543
0.22271
0.220972
0.219651
0.219135
0.219301
0.219716
0.220013
0.219421
0.219232
0.218995
0.21898
0.219491
0.220676
0.222433
0.224595
0.227252
0.228218
0.228237
0.227308
0.224687
0.222546
0.220802
0.219619
0.219105
0.219115
0.219348
0.219535
0.219254
0.219166
0.219106
0.219276
0.219892
0.221049
0.222649
0.224463
0.22603
0.226903
0.226922
0.22608
0.224542
0.222747
0.221158
0.220006
0.219391
0.219217
0.219277
0.219361
0.219223
0.219189
0.21923
0.219516
0.220214
0.221395
0.222962
0.22467
0.226185
0.227036
0.227054
0.22623
0.224742
0.223051
0.221496
0.220323
0.219626
0.21934
0.219299
0.219324
0.218077
0.218029
0.218072
0.21844
0.219372
0.220991
0.223181
0.225625
0.227787
0.229029
0.229032
0.227796
0.22564
0.2232
0.221014
0.219399
0.218468
0.218102
0.218059
0.218112
0.218085
0.217932
0.21778
0.217906
0.218616
0.220093
0.222227
0.224739
0.227069
0.228382
0.228385
0.227079
0.224755
0.222248
0.220118
0.218644
0.217936
0.217811
0.217964
0.21812
0.21824
0.217892
0.217381
0.21707
0.217413
0.218721
0.220876
0.223629
0.227551
0.228932
0.228936
0.227562
0.223646
0.220899
0.218748
0.217443
0.217103
0.217415
0.217927
0.218276
0.21877
0.218181
0.217237
0.216424
0.216419
0.217622
0.219549
0.223047
0.225487
0.228643
0.228647
0.2255
0.223068
0.219576
0.217653
0.216453
0.21646
0.217274
0.21822
0.218809
0.219908
0.219102
0.217796
0.216641
0.216704
0.218336
0.222219
0.222146
0.222899
0.226341
0.226029
0.228102
0.222172
0.222251
0.218373
0.216743
0.216682
0.217838
0.219145
0.219952
0.221764
0.220823
0.219361
0.218117
0.218622
0.222257
0.221626
0.222763
0.227678
0.226607
0.226451
0.226272
0.228602
0.221666
0.222302
0.218669
0.218165
0.219409
0.220872
0.221813
0.224203
0.223218
0.221798
0.220356
0.222854
0.221992
0.221831
0.227181
0.227251
0.227886
0.228393
0.228337
0.227778
0.225425
0.222047
0.22291
0.220412
0.221854
0.223275
0.22426
0.226881
0.225975
0.22482
0.224162
0.223139
0.223552
0.227633
0.229009
0.504554
0.516263
0.541495
0.228397
0.225872
0.223205
0.224228
0.224885
0.226039
0.226945
0.229226
0.228501
0.228964
0.226861
0.224221
0.228847
0.228202
0.353347
0.415631
0.41031
0.522428
0.478087
0.228169
0.226635
0.22694
0.229042
0.228578
0.2293
0.23057
0.229928
0.230478
0.230175
0.227877
0.228065
0.229265
0.546456
0.41639
0.524709
0.524697
0.559288
0.549498
0.229104
0.226138
0.230269
0.23057
0.230017
0.230658
0.230573
0.229931
0.230482
0.23018
0.227619
0.227981
0.229944
0.515717
0.411358
0.524725
0.524723
0.559153
0.542728
0.552282
0.229357