/*--------------------------------*- C++ -*----------------------------------*\
  =========                 |
  \\      /  F ield         | OpenFOAM: The Open Source CFD Toolbox
   \\    /   O peration     | Website:  https://openfoam.org
    \\  /    A nd           | Version:  7
     \\/     M anipulation  |
\*---------------------------------------------------------------------------*/
FoamFile
{
    version     2.0;
    format      ascii;
    class       volScalarField;
    location    "0.2";
    object      p;
}
// * * * * * * * * * * * * * * * * * * * * * * * * * * * * * * * * * * * * * //

dimensions      [0 2 -2 0 0 0 0];

internalField   nonuniform List<scalar> 
303246
(
0.201035
0.200626
0.199856
0.198813
0.19761
0.196369
0.195216
0.19426
0.193603
0.193257
0.193258
0.193605
0.194262
0.195219
0.196373
0.197615
0.198819
0.199863
0.200632
0.201041
0.200741
0.200347
0.199607
0.198607
0.197457
0.196275
0.195182
0.194276
0.193662
0.193296
0.193297
0.193664
0.194279
0.195185
0.196279
0.197462
0.198612
0.199613
0.200354
0.200748
0.200206
0.199844
0.199167
0.198261
0.19723
0.196175
0.195215
0.194425
0.194028
0.1938
0.193801
0.19403
0.194427
0.195219
0.196179
0.197235
0.198267
0.199174
0.199851
0.200213
0.199526
0.199219
0.198651
0.197906
0.197081
0.196239
0.195529
0.194862
0.194565
0.194568
0.194569
0.194567
0.194865
0.195533
0.196244
0.197086
0.197912
0.198657
0.199226
0.199533
0.19882
0.198597
0.198198
0.197705
0.197193
0.19668
0.196067
0.195727
0.19558
0.196034
0.195942
0.195925
0.19573
0.196072
0.196686
0.197199
0.197712
0.198205
0.198605
0.198828
0.19821
0.198109
0.197958
0.197834
0.197842
0.197406
0.197226
0.197216
0.19789
0.198894
0.198407
0.19844
0.197142
0.197128
0.197413
0.197848
0.197842
0.197966
0.198117
0.198218
0.19779
0.197861
0.198077
0.198589
0.199143
0.199287
0.200011
0.198865
0.199925
0.211536
0.201815
0.208222
0.199151
0.198802
0.199601
0.199149
0.198596
0.198086
0.19787
0.197799
0.197591
0.197871
0.198615
0.199703
0.201711
0.203171
0.203409
0.201362
0.645697
0.201906
0.203986
0.201718
0.19971
0.198624
0.19788
0.1976
0.197586
0.198073
0.199309
0.20137
0.204
0.210212
0.215235
0.712082
0.962418
0.940017
0.915207
0.757036
0.213874
0.206904
0.201377
0.199317
0.198083
0.197597
0.197631
0.198236
0.199753
0.202634
0.207209
0.216276
0.243015
0.964503
1.14173
1.14174
1.10784
0.949358
0.235978
0.21091
0.202642
0.199762
0.198246
0.197642
0.197632
0.198236
0.199753
0.202635
0.207791
0.217756
0.242553
0.653135
0.940933
1.14171
1.1417
1.15171
0.949418
0.695661
0.237501
0.21158
0.202643
0.199763
0.198248
0.197644
0.197588
0.198076
0.199311
0.201372
0.205927
0.214571
0.241843
0.91807
1.10974
1.15085
1.05125
0.835995
0.231034
0.2091
0.201381
0.199322
0.198089
0.197603
0.197594
0.197874
0.198619
0.199707
0.201717
0.205917
0.210789
0.753487
0.943405
0.945993
0.839378
0.788858
0.207535
0.201725
0.199718
0.198632
0.19789
0.19761
0.197794
0.197866
0.198082
0.198595
0.199149
0.200774
0.200856
0.200489
0.689048
0.200632
0.200361
0.199161
0.198608
0.198098
0.197883
0.197811
0.198215
0.198115
0.197964
0.197841
0.197849
0.197415
0.19824
0.19808
0.199426
0.207409
0.201482
0.203804
0.197912
0.197118
0.197428
0.197863
0.197857
0.197981
0.198133
0.198234
0.198826
0.198604
0.198205
0.197712
0.197202
0.19669
0.196078
0.195738
0.196617
0.196912
0.196731
0.196443
0.195748
0.196092
0.196704
0.197217
0.197729
0.198223
0.198623
0.198846
0.199533
0.199226
0.198658
0.197914
0.19709
0.196249
0.19554
0.194874
0.194578
0.194582
0.194584
0.194584
0.194884
0.195553
0.196263
0.197106
0.197932
0.198677
0.199246
0.199553
0.200213
0.199852
0.199175
0.198269
0.197239
0.196185
0.195226
0.194437
0.194042
0.193815
0.193817
0.194048
0.194446
0.195239
0.1962
0.197256
0.198288
0.199195
0.199872
0.200234
0.200748
0.200355
0.199615
0.198615
0.197466
0.196285
0.195193
0.194288
0.193676
0.193311
0.193313
0.193682
0.194298
0.195206
0.196301
0.197484
0.198634
0.199635
0.200376
0.20077
0.201043
0.200634
0.199865
0.198822
0.197619
0.196379
0.195228
0.194272
0.193617
0.193273
0.193275
0.193623
0.194282
0.195241
0.196395
0.197637
0.198841
0.199885
0.200655
0.201064
0.194807
0.194674
0.194429
0.194111
0.19376
0.193415
0.19311
0.192872
0.192732
0.192648
0.192648
0.192734
0.192875
0.193114
0.193419
0.193765
0.194116
0.194435
0.19468
0.194813
0.194779
0.194665
0.194458
0.19419
0.193899
0.193614
0.193362
0.193152
0.193025
0.192941
0.192941
0.193027
0.193155
0.193366
0.193618
0.193904
0.194196
0.194464
0.194672
0.194786
0.19475
0.194675
0.194542
0.194378
0.194209
0.194043
0.193889
0.193766
0.193808
0.193763
0.193763
0.193809
0.193769
0.193893
0.194048
0.194215
0.194385
0.194549
0.194682
0.194758
0.194762
0.194748
0.19473
0.194729
0.19475
0.194743
0.19481
0.194668
0.194601
0.194752
0.194752
0.194603
0.194672
0.194814
0.194748
0.194756
0.194735
0.194738
0.194755
0.19477
0.19486
0.19493
0.195074
0.195299
0.195557
0.195808
0.195658
0.19563
0.195415
0.195704
0.195613
0.195735
0.195634
0.195663
0.195814
0.195564
0.195306
0.195082
0.194938
0.194868
0.195076
0.195254
0.195611
0.196119
0.196789
0.196766
0.197371
0.197104
0.197149
0.197485
0.197328
0.197208
0.196846
0.197097
0.196773
0.196796
0.196127
0.19562
0.195262
0.195084
0.195413
0.195728
0.196358
0.197403
0.198196
0.199128
0.199564
0.198502
0.198509
0.199764
0.199177
0.199633
0.198344
0.198453
0.199134
0.198203
0.197411
0.196367
0.195737
0.195422
0.195826
0.196282
0.197232
0.198662
0.20033
0.201783
0.202184
0.200679
0.534372
0.538842
0.559841
0.201132
0.202292
0.200338
0.198671
0.197241
0.196292
0.195836
0.196243
0.196842
0.19828
0.200101
0.202216
0.206022
0.208353
0.427047
0.466846
0.479338
0.579482
0.511455
0.207843
0.204109
0.20011
0.19829
0.196853
0.196254
0.196496
0.19721
0.19883
0.201203
0.20442
0.210088
0.216782
0.563959
0.468394
-0.570857
-0.570828
0.607635
0.550722
0.215207
0.206832
0.201213
0.198841
0.197221
0.196509
0.196497
0.19721
0.198831
0.201204
0.204764
0.210887
0.218687
0.540281
0.481022
-0.570815
-0.570837
0.621683
0.539705
0.571987
0.216833
0.207349
0.201215
0.198843
0.197224
0.196511
0.196245
0.196844
0.198282
0.200104
0.203571
0.208188
0.215983
0.580964
0.60665
0.619596
0.716971
0.572078
0.213626
0.20514
0.200115
0.198296
0.196859
0.196261
0.195829
0.196286
0.197235
0.198666
0.200335
0.20346
0.20635
0.511053
0.544518
0.538308
0.570817
0.574645
0.203901
0.200346
0.19868
0.197251
0.196302
0.195847
0.195417
0.195733
0.196363
0.197409
0.198203
0.200012
0.200107
0.199972
0.57022
0.199364
0.198794
0.198213
0.197423
0.19638
0.195751
0.195436
0.195081
0.195259
0.195618
0.196126
0.196797
0.196775
0.197967
0.197794
0.198142
0.199245
0.198802
0.198919
0.197144
0.196326
0.196778
0.196809
0.196142
0.195636
0.195279
0.195101
0.194866
0.194936
0.195081
0.195306
0.195566
0.195818
0.195669
0.195642
0.196269
0.196424
0.196251
0.19586
0.195654
0.195682
0.195832
0.195582
0.195324
0.195101
0.194956
0.194887
0.194769
0.194755
0.194738
0.194737
0.194759
0.194753
0.194821
0.194681
0.194614
0.194767
0.194769
0.194621
0.194691
0.194834
0.194768
0.194776
0.194756
0.194758
0.194776
0.194791
0.194758
0.194683
0.19455
0.194387
0.194219
0.194053
0.1939
0.193778
0.193822
0.193778
0.19378
0.193828
0.193789
0.193914
0.194069
0.194237
0.194406
0.19457
0.194704
0.19478
0.194787
0.194673
0.194466
0.194199
0.193909
0.193624
0.193374
0.193165
0.193039
0.192957
0.192959
0.193046
0.193176
0.193387
0.193641
0.193927
0.194219
0.194487
0.194695
0.194809
0.194815
0.194682
0.194438
0.19412
0.193769
0.193426
0.193122
0.192885
0.192747
0.192664
0.192666
0.192753
0.192896
0.193136
0.193442
0.193788
0.19414
0.194459
0.194703
0.194837
0.193535
0.193421
0.193215
0.192953
0.192675
0.192414
0.192193
0.192032
0.19195
0.191908
0.191909
0.191951
0.192034
0.192196
0.192418
0.19268
0.192958
0.193221
0.193427
0.193541
0.193519
0.193421
0.193246
0.193028
0.192803
0.192594
0.192414
0.192279
0.192206
0.192171
0.192171
0.192208
0.192282
0.192418
0.192598
0.192808
0.193034
0.193252
0.193427
0.193525
0.193511
0.193446
0.193335
0.193207
0.19309
0.192989
0.192905
0.19284
0.192953
0.192917
0.192918
0.192955
0.192843
0.192909
0.192994
0.193096
0.193213
0.193341
0.193453
0.193518
0.193551
0.193538
0.193527
0.193538
0.193585
0.193634
0.19364
0.193697
0.193653
0.193827
0.193827
0.193655
0.1937
0.193644
0.19364
0.193592
0.193545
0.193534
0.193546
0.193559
0.19368
0.19374
0.193869
0.194073
0.194347
0.194591
0.194771
0.194541
0.194555
0.194799
0.194704
0.194895
0.194544
0.194776
0.194597
0.194354
0.194081
0.193877
0.193748
0.193689
0.193922
0.194072
0.194384
0.194831
0.195394
0.195928
0.195859
0.195797
0.195953
0.195891
0.195815
0.195803
0.196019
0.195865
0.195935
0.195401
0.19484
0.194393
0.194082
0.193931
0.19427
0.194527
0.195068
0.19581
0.19683
0.197374
0.197474
0.197194
0.196841
0.19684
0.196748
0.196852
0.19695
0.197262
0.197382
0.196838
0.19582
0.195077
0.194537
0.19428
0.194681
0.195052
0.195843
0.197022
0.198227
0.19932
0.199756
0.198964
0.509927
0.516786
0.541409
0.199222
0.19978
0.198236
0.197032
0.195854
0.195063
0.194692
0.195082
0.19556
0.196751
0.198133
0.199833
0.202162
0.202984
0.403979
0.440898
0.443691
0.558806
0.495641
0.202865
0.20106
0.198144
0.196763
0.195572
0.195094
0.195317
0.195864
0.197189
0.19903
0.20139
0.204268
0.206477
0.54507
0.441609
0.870134
0.870135
0.604779
0.537235
0.206079
0.202701
0.199042
0.197201
0.195877
0.195331
0.195318
0.195864
0.19719
0.199031
0.201576
0.204703
0.207762
0.51653
0.444781
0.87011
0.87011
0.614955
0.52742
0.548889
0.207057
0.202946
0.199044
0.197204
0.19588
0.195334
0.195084
0.195562
0.196754
0.198136
0.200857
0.203214
0.206105
0.559297
0.603989
0.614021
0.590591
0.553052
0.205262
0.201387
0.19815
0.19677
0.195579
0.195101
0.194684
0.195056
0.195847
0.197026
0.198232
0.200799
0.202079
0.495927
0.530994
0.5274
0.550889
0.555825
0.20056
0.198247
0.197042
0.195865
0.195075
0.194704
0.194274
0.194532
0.195073
0.195816
0.196836
0.197381
0.198369
0.19842
0.548547
0.197645
0.197339
0.196857
0.195832
0.195092
0.194552
0.194295
0.193927
0.194078
0.19439
0.194838
0.195401
0.195937
0.195869
0.196519
0.196605
0.196658
0.196567
0.196539
0.195876
0.195864
0.195938
0.195416
0.194856
0.19441
0.194099
0.193949
0.193687
0.193746
0.193876
0.194081
0.194356
0.1946
0.194782
0.194553
0.195251
0.195249
0.195083
0.194706
0.194568
0.194806
0.194615
0.194374
0.194101
0.193897
0.193768
0.193709
0.193558
0.193545
0.193535
0.193547
0.193595
0.193644
0.193651
0.193709
0.193667
0.193842
0.193845
0.193674
0.193721
0.193666
0.193661
0.193614
0.193567
0.193556
0.193568
0.193581
0.193518
0.193454
0.193343
0.193216
0.193099
0.193
0.192916
0.192853
0.192968
0.192933
0.192936
0.192975
0.192865
0.192932
0.193017
0.193119
0.193236
0.193365
0.193476
0.193541
0.193526
0.193429
0.193254
0.193037
0.192813
0.192604
0.192426
0.192293
0.192221
0.192187
0.19219
0.192228
0.192304
0.192441
0.192622
0.192832
0.193058
0.193276
0.193451
0.193549
0.193543
0.193429
0.193223
0.192962
0.192685
0.192425
0.192205
0.192045
0.191965
0.191925
0.191927
0.191972
0.192057
0.19222
0.192442
0.192704
0.192983
0.193245
0.193452
0.193566
0.191142
0.191088
0.191001
0.190911
0.190849
0.19083
0.190852
0.190909
0.190992
0.191032
0.191033
0.190994
0.190912
0.190856
0.190834
0.190854
0.190917
0.191007
0.191095
0.191148
0.191176
0.191137
0.191078
0.191029
0.191017
0.191047
0.191107
0.191184
0.19127
0.191311
0.191311
0.191271
0.191187
0.191111
0.191052
0.191022
0.191035
0.191084
0.191144
0.191183
0.191267
0.191258
0.191256
0.19129
0.19138
0.191516
0.191668
0.191797
0.192086
0.192107
0.192107
0.192088
0.1918
0.191672
0.191521
0.191386
0.191296
0.191263
0.191265
0.191274
0.191448
0.191485
0.191574
0.191734
0.191976
0.192249
0.192448
0.192717
0.192744
0.193001
0.193002
0.192746
0.192721
0.192453
0.192255
0.191982
0.191741
0.191581
0.191493
0.191456
0.191746
0.191848
0.192064
0.192398
0.192852
0.193274
0.193679
0.193463
0.193502
0.19377
0.193658
0.193936
0.193467
0.193684
0.19328
0.192859
0.192406
0.192072
0.191856
0.191754
0.192165
0.192346
0.192724
0.193264
0.193932
0.194657
0.194488
0.194499
0.194687
0.194497
0.194413
0.194458
0.194904
0.194494
0.194665
0.19394
0.193273
0.192733
0.192356
0.192174
0.192676
0.192944
0.193512
0.194241
0.195317
0.195625
0.195714
0.195701
0.195324
0.195109
0.195038
0.195169
0.195524
0.195737
0.195633
0.195326
0.194251
0.193522
0.192954
0.192687
0.193217
0.193569
0.194322
0.195409
0.196296
0.197084
0.197454
0.197067
0.488698
0.496796
0.519265
0.197224
0.197477
0.196306
0.19542
0.194334
0.193581
0.193229
0.193703
0.194122
0.195229
0.196297
0.19749
0.198997
0.199305
0.377848
0.428224
0.425407
0.518657
0.468491
0.199332
0.198281
0.196309
0.195242
0.194135
0.193717
0.193975
0.194437
0.195611
0.197071
0.198628
0.200134
0.201176
0.52417
0.428795
0.533815
0.533808
0.544525
0.519339
0.200997
0.199286
0.197085
0.195626
0.194453
0.19399
0.193976
0.194438
0.195612
0.197072
0.198711
0.200356
0.201898
0.496378
0.426331
0.533819
0.533815
0.548113
0.51242
0.528265
0.201493
0.199344
0.197087
0.195628
0.194455
0.193993
0.193705
0.194124
0.195231
0.196299
0.198355
0.199504
0.20099
0.518569
0.54375
0.547553
0.544751
0.524675
0.200485
0.198177
0.196316
0.19525
0.194143
0.193725
0.193221
0.193573
0.194326
0.195413
0.196301
0.198262
0.198905
0.468844
0.513683
0.512675
0.522406
0.529047
0.197675
0.196322
0.195432
0.194347
0.193594
0.193242
0.192681
0.192948
0.193517
0.194246
0.195323
0.195632
0.196445
0.196677
0.528112
0.195772
0.195604
0.19535
0.194266
0.193539
0.192971
0.192703
0.19217
0.192352
0.19273
0.193271
0.19394
0.194666
0.194498
0.195125
0.195183
0.195001
0.194895
0.194905
0.194434
0.194489
0.194669
0.193957
0.193292
0.192753
0.192376
0.192194
0.191752
0.191854
0.192071
0.192406
0.19286
0.193284
0.19369
0.193475
0.194055
0.194013
0.193813
0.193408
0.193493
0.193717
0.1933
0.192881
0.192428
0.192094
0.191878
0.191776
0.191455
0.191492
0.191581
0.191742
0.191985
0.19226
0.19246
0.19273
0.192758
0.193018
0.19302
0.192766
0.192744
0.192477
0.192278
0.192006
0.191765
0.191605
0.191516
0.191479
0.191275
0.191265
0.191264
0.191298
0.19139
0.191527
0.19168
0.19181
0.192101
0.192123
0.192126
0.192109
0.191824
0.191697
0.191546
0.191411
0.191321
0.191287
0.191289
0.191299
0.191184
0.191145
0.191086
0.191038
0.191026
0.191058
0.191119
0.191198
0.191285
0.191328
0.19133
0.191293
0.191211
0.191136
0.191077
0.191048
0.19106
0.191109
0.191169
0.191208
0.19115
0.191096
0.191009
0.19092
0.190859
0.190841
0.190864
0.190923
0.191007
0.191049
0.191052
0.191015
0.190936
0.190881
0.19086
0.19088
0.190943
0.191033
0.19112
0.191175
0.189091
0.189071
0.189055
0.189075
0.189161
0.189319
0.189531
0.189762
0.189985
0.190105
0.190105
0.189987
0.189765
0.189534
0.189324
0.189166
0.189081
0.189061
0.189078
0.189097
0.18915
0.189141
0.189146
0.189199
0.189328
0.189532
0.189779
0.190026
0.190238
0.190378
0.190378
0.19024
0.190029
0.189783
0.189537
0.189334
0.189205
0.189152
0.189148
0.189156
0.189291
0.189305
0.189354
0.189476
0.189697
0.190002
0.190341
0.190636
0.191111
0.191183
0.191184
0.191112
0.190639
0.190346
0.190008
0.189703
0.189482
0.189361
0.189312
0.189298
0.189548
0.189599
0.189723
0.189952
0.190311
0.190743
0.191101
0.191571
0.191676
0.192046
0.192046
0.191678
0.191574
0.191106
0.190748
0.190318
0.18996
0.189731
0.189607
0.189556
0.189946
0.190052
0.190287
0.19067
0.191228
0.191792
0.192421
0.192214
0.192302
0.192675
0.192538
0.192908
0.192218
0.192426
0.191799
0.191236
0.190678
0.190295
0.190061
0.189955
0.190481
0.190654
0.19103
0.191589
0.192324
0.193241
0.193051
0.193139
0.19341
0.193186
0.193089
0.193142
0.193727
0.193057
0.193249
0.192333
0.191598
0.19104
0.190664
0.190491
0.191105
0.191349
0.191888
0.192561
0.193706
0.193892
0.194003
0.194163
0.19386
0.193656
0.193596
0.193741
0.194103
0.194146
0.193902
0.193716
0.192572
0.191899
0.19136
0.191116
0.19174
0.192044
0.192723
0.193722
0.194379
0.195016
0.195377
0.195259
0.458161
0.467097
0.488233
0.195328
0.195401
0.19439
0.193735
0.192736
0.192057
0.191753
0.192294
0.192633
0.193675
0.194461
0.195288
0.196438
0.196549
0.343534
0.390388
0.385569
0.479091
0.434474
0.196636
0.195844
0.194475
0.193689
0.192648
0.192309
0.192601
0.192986
0.19402
0.195201
0.196252
0.197074
0.197676
0.493594
0.390889
0.48458
0.484574
0.491315
0.484793
0.197586
0.196508
0.195217
0.194036
0.193003
0.192618
0.192602
0.192987
0.19402
0.195202
0.196251
0.19717
0.198125
0.466667
0.386431
0.484577
0.484575
0.492163
0.477633
0.498513
0.197845
0.196426
0.19522
0.194039
0.193006
0.192622
0.192296
0.192635
0.193677
0.194464
0.196187
0.196652
0.197608
0.478963
0.49063
0.491667
0.498151
0.488974
0.1972
0.195425
0.194484
0.193698
0.192657
0.192318
0.191743
0.192048
0.192727
0.193727
0.194383
0.19611
0.196408
0.43487
0.479447
0.477958
0.486705
0.495391
0.195164
0.194411
0.19375
0.192751
0.192072
0.191768
0.19111
0.191354
0.191893
0.192567
0.193712
0.193899
0.194643
0.194955
0.498394
0.19386
0.193881
0.193747
0.192591
0.191918
0.191379
0.191135
0.190486
0.19066
0.191036
0.191595
0.192332
0.19325
0.193061
0.193721
0.193808
0.193581
0.193465
0.193454
0.192899
0.193042
0.193256
0.192353
0.19162
0.191062
0.190686
0.190512
0.189953
0.190059
0.190294
0.190677
0.191237
0.191802
0.192432
0.192226
0.192779
0.192747
0.192496
0.191998
0.192248
0.192463
0.191822
0.191261
0.190703
0.19032
0.190085
0.18998
0.189555
0.189607
0.189731
0.189961
0.19032
0.190753
0.191113
0.191584
0.191691
0.192063
0.192066
0.1917
0.1916
0.191132
0.190775
0.190345
0.189986
0.189757
0.189633
0.189582
0.189299
0.189312
0.189362
0.189484
0.189707
0.190013
0.190353
0.19065
0.191126
0.191201
0.191204
0.191135
0.190666
0.190373
0.190035
0.189731
0.18951
0.189388
0.189338
0.189325
0.189157
0.189149
0.189154
0.189207
0.189338
0.189543
0.189791
0.19004
0.190253
0.190396
0.190399
0.190263
0.190055
0.18981
0.189565
0.189362
0.189232
0.189179
0.189174
0.189184
0.189099
0.18908
0.189064
0.189084
0.18917
0.18933
0.189543
0.189776
0.190001
0.190123
0.190126
0.190011
0.189791
0.189562
0.189352
0.189194
0.189109
0.189088
0.189105
0.189126
0.187259
0.187255
0.187276
0.187365
0.187558
0.187863
0.188246
0.188645
0.189012
0.189214
0.189214
0.189013
0.188648
0.188249
0.187868
0.187564
0.18737
0.187282
0.187262
0.187266
0.187324
0.187325
0.187356
0.187464
0.18769
0.188034
0.188449
0.188861
0.189203
0.189454
0.189455
0.189205
0.188864
0.188452
0.188039
0.187695
0.18747
0.187362
0.187331
0.187331
0.187483
0.187494
0.187549
0.187702
0.188003
0.188441
0.188954
0.189416
0.190097
0.19024
0.19024
0.190099
0.18942
0.188958
0.188447
0.188009
0.187708
0.187556
0.187501
0.18749
0.187776
0.18781
0.187915
0.188148
0.188568
0.189123
0.189634
0.190319
0.190515
0.191041
0.191042
0.190517
0.190322
0.189638
0.189129
0.188574
0.188155
0.187922
0.187818
0.187784
0.188237
0.188312
0.188505
0.188868
0.189481
0.190169
0.191042
0.190837
0.190978
0.191514
0.191348
0.191841
0.190841
0.191048
0.190176
0.189489
0.188877
0.188513
0.188321
0.188246
0.188859
0.18899
0.189306
0.18982
0.190596
0.191724
0.191489
0.191679
0.192109
0.191878
0.191766
0.191803
0.192524
0.191496
0.191732
0.190605
0.18983
0.189316
0.189
0.18887
0.189586
0.189773
0.190236
0.190815
0.192046
0.192116
0.192235
0.192602
0.192391
0.192253
0.192224
0.192362
0.192687
0.192526
0.192127
0.192057
0.190826
0.190248
0.189785
0.189597
0.190317
0.190549
0.191125
0.192027
0.192486
0.193056
0.193459
0.193534
0.422287
0.431562
0.452136
0.193542
0.193474
0.192499
0.19204
0.191139
0.190562
0.19033
0.190951
0.191189
0.19217
0.192687
0.19322
0.194274
0.194262
0.306193
0.351402
0.346057
0.440028
0.39725
0.194418
0.193675
0.192703
0.192186
0.191205
0.190966
0.191301
0.191597
0.192517
0.193483
0.194172
0.194624
0.195014
0.457682
0.351908
0.444183
0.444182
0.448432
0.447291
0.194973
0.194134
0.193501
0.192536
0.191615
0.19132
0.191302
0.191598
0.192518
0.193484
0.194099
0.194642
0.195324
0.431126
0.346876
0.444182
0.444177
0.448443
0.439839
0.462969
0.195109
0.19393
0.193505
0.192539
0.191619
0.191323
0.190953
0.191191
0.192172
0.19269
0.194288
0.194296
0.195023
0.439914
0.447774
0.447967
0.456913
0.450987
0.194614
0.192926
0.192714
0.192197
0.191215
0.190977
0.19032
0.190552
0.191129
0.192031
0.192491
0.194248
0.194294
0.397665
0.441877
0.44017
0.448842
0.458328
0.192858
0.192527
0.192059
0.191158
0.19058
0.190347
0.18959
0.189778
0.190241
0.190821
0.192052
0.192124
0.192883
0.193283
0.46286
0.191937
0.192098
0.192095
0.19085
0.190271
0.189807
0.189619
0.188865
0.188996
0.189312
0.189827
0.190604
0.191732
0.191499
0.192266
0.192443
0.192204
0.192092
0.192017
0.191247
0.191466
0.191739
0.19063
0.189856
0.189342
0.189025
0.188894
0.188243
0.188319
0.188512
0.188876
0.18949
0.190179
0.191053
0.19085
0.19143
0.191412
0.191093
0.190431
0.190876
0.191091
0.190203
0.189519
0.188906
0.188541
0.188348
0.188273
0.187783
0.187818
0.187922
0.188156
0.188577
0.189133
0.189645
0.190332
0.190531
0.191059
0.191063
0.190542
0.190351
0.189669
0.189159
0.188605
0.188185
0.187951
0.187846
0.187812
0.18749
0.187501
0.187557
0.187711
0.188012
0.188452
0.188966
0.18943
0.190113
0.190258
0.190262
0.190125
0.189449
0.188989
0.188478
0.18804
0.187739
0.187585
0.187529
0.187518
0.187331
0.187332
0.187364
0.187472
0.187699
0.188045
0.188461
0.188875
0.189219
0.189473
0.189476
0.18923
0.188892
0.188482
0.18807
0.187726
0.1875
0.187391
0.18736
0.187359
0.187267
0.187263
0.187285
0.187374
0.187569
0.187874
0.188258
0.18866
0.189028
0.189233
0.189236
0.189039
0.188676
0.188279
0.187898
0.187594
0.1874
0.187311
0.18729
0.187294
0.185677
0.185674
0.185706
0.185832
0.186106
0.186543
0.187097
0.18768
0.188201
0.18848
0.18848
0.188203
0.187683
0.1871
0.186547
0.186111
0.185838
0.185712
0.18568
0.185683
0.185733
0.185724
0.185748
0.185871
0.186157
0.18662
0.1872
0.1878
0.188278
0.188553
0.188553
0.18828
0.187803
0.187204
0.186625
0.186162
0.185876
0.185754
0.18573
0.18574
0.185884
0.185867
0.18588
0.186007
0.186334
0.186876
0.187558
0.188225
0.189135
0.189327
0.189328
0.189137
0.188229
0.187563
0.186882
0.18634
0.186013
0.185887
0.185874
0.185891
0.186185
0.186167
0.186188
0.186345
0.186755
0.187393
0.188022
0.188972
0.189274
0.190018
0.190019
0.189276
0.188975
0.188027
0.187399
0.186761
0.186352
0.186195
0.186175
0.186194
0.186686
0.186686
0.186757
0.187005
0.187595
0.18837
0.189532
0.189299
0.189491
0.190267
0.190067
0.19074
0.189304
0.189538
0.188377
0.187603
0.187013
0.186765
0.186695
0.186694
0.187388
0.187425
0.187596
0.187964
0.188711
0.190097
0.189803
0.19003
0.190747
0.190509
0.190376
0.190386
0.191289
0.18981
0.190106
0.188721
0.187974
0.187606
0.187435
0.187398
0.188225
0.188306
0.188613
0.188972
0.190315
0.190274
0.190329
0.190967
0.190837
0.190793
0.190815
0.190933
0.191216
0.190826
0.190284
0.190326
0.188983
0.188625
0.188319
0.188237
0.189078
0.189198
0.189614
0.190323
0.190557
0.191055
0.191584
0.191826
0.384301
0.393715
0.41409
0.191786
0.191583
0.190571
0.190337
0.189628
0.189213
0.189092
0.189815
0.189913
0.190802
0.190969
0.191188
0.192324
0.192172
0.267745
0.312437
0.306916
0.401033
0.358806
0.192414
0.191633
0.190986
0.190819
0.18993
0.189831
0.190214
0.190327
0.191151
0.191911
0.192262
0.192492
0.192745
0.419684
0.312944
0.404948
0.404946
0.408427
0.408804
0.192739
0.191945
0.191932
0.191171
0.190348
0.190235
0.190215
0.190328
0.191152
0.191912
0.192125
0.192448
0.193003
0.393248
0.30773
0.404945
0.404939
0.408204
0.401315
0.425094
0.192801
0.191618
0.191936
0.191176
0.190352
0.190239
0.189817
0.189915
0.190805
0.190972
0.192579
0.192191
0.192813
0.400954
0.407777
0.407747
0.417377
0.412348
0.192341
0.190458
0.191
0.190833
0.189943
0.189844
0.189081
0.189202
0.189618
0.190327
0.190562
0.192558
0.192359
0.359211
0.403415
0.401666
0.410203
0.419937
0.190559
0.190608
0.190362
0.189652
0.189233
0.189111
0.188229
0.188311
0.188618
0.188978
0.190321
0.190281
0.191085
0.191602
0.424996
0.189869
0.190237
0.190376
0.189013
0.188653
0.188344
0.188261
0.187393
0.187431
0.187602
0.18797
0.188719
0.190106
0.189813
0.190701
0.190993
0.190768
0.190661
0.190488
0.189393
0.189762
0.190113
0.188751
0.188005
0.187637
0.187464
0.187425
0.186692
0.186692
0.186763
0.187012
0.187603
0.188379
0.189543
0.189312
0.189965
0.189942
0.189534
0.188615
0.189347
0.189591
0.18841
0.187638
0.187047
0.186797
0.186724
0.186724
0.186192
0.186174
0.186195
0.186353
0.186764
0.187403
0.188033
0.188985
0.18929
0.190037
0.190041
0.189304
0.189009
0.188062
0.187434
0.186797
0.186386
0.186227
0.186205
0.186222
0.185891
0.185874
0.185888
0.186016
0.186343
0.186887
0.18757
0.18824
0.189151
0.189347
0.189351
0.189165
0.188262
0.187598
0.186917
0.186375
0.186047
0.185918
0.185904
0.18592
0.185741
0.185733
0.185756
0.185879
0.186166
0.186631
0.187212
0.187815
0.188295
0.188572
0.188577
0.188307
0.187835
0.187237
0.186658
0.186195
0.185909
0.185785
0.18576
0.185768
0.185683
0.185681
0.185714
0.185841
0.186116
0.186554
0.187109
0.187694
0.188218
0.188499
0.188504
0.18823
0.187713
0.187133
0.18658
0.186144
0.185869
0.185742
0.18571
0.185711
0.184382
0.18437
0.184398
0.184545
0.184892
0.185467
0.186215
0.187017
0.187739
0.188131
0.188131
0.18774
0.187019
0.186218
0.185471
0.184897
0.184551
0.184403
0.184376
0.184389
0.184421
0.184388
0.184378
0.184484
0.184805
0.185379
0.186137
0.186958
0.18763
0.188024
0.188024
0.187632
0.186961
0.186141
0.185384
0.18481
0.18449
0.184383
0.184394
0.184428
0.18455
0.184479
0.184404
0.184445
0.184743
0.185358
0.186215
0.187105
0.188344
0.188619
0.18862
0.188346
0.187108
0.186219
0.185363
0.184749
0.184451
0.184411
0.184486
0.184557
0.184846
0.184736
0.184597
0.184581
0.184886
0.185557
0.18626
0.187532
0.18795
0.188983
0.188984
0.187953
0.187536
0.186265
0.185563
0.184893
0.184589
0.184605
0.184743
0.184853
0.185382
0.18525
0.185096
0.185093
0.185539
0.18632
0.187827
0.187497
0.187773
0.188885
0.188641
0.189583
0.187503
0.187834
0.186328
0.185547
0.185101
0.185105
0.18526
0.18539
0.186176
0.186053
0.185953
0.186022
0.186592
0.188279
0.187891
0.188104
0.189268
0.189002
0.188837
0.188814
0.189975
0.187899
0.188289
0.186602
0.186032
0.185964
0.186063
0.186188
0.187157
0.187054
0.187076
0.187022
0.188439
0.188249
0.188136
0.189159
0.189091
0.189169
0.189268
0.189348
0.189588
0.188934
0.18826
0.188451
0.187035
0.187089
0.187067
0.187169
0.188177
0.188108
0.188226
0.1886
0.188463
0.188875
0.189612
0.190026
0.345388
0.354861
0.375128
0.189944
0.189589
0.188478
0.188616
0.188241
0.188122
0.188192
0.189071
0.188967
0.189682
0.189275
0.189069
0.190435
0.190065
0.22874
0.273505
0.267984
0.361967
0.319713
0.190408
0.189584
0.189294
0.189701
0.188985
0.189089
0.189559
0.189466
0.190078
0.190458
0.190398
0.190462
0.190578
0.380745
0.274008
0.366982
0.36698
0.369455
0.369884
0.190608
0.189738
0.19048
0.1901
0.189488
0.189581
0.18956
0.189467
0.190079
0.190459
0.1902
0.190362
0.190852
0.354383
0.268795
0.366979
0.366976
0.369315
0.362483
0.386225
0.190622
0.189269
0.190486
0.190106
0.189493
0.189586
0.189073
0.188969
0.189685
0.189278
0.190979
0.190145
0.190708
0.361909
0.368824
0.368864
0.378394
0.373269
0.190108
0.187785
0.189312
0.189717
0.189
0.189103
0.18818
0.188111
0.18823
0.188605
0.188468
0.190923
0.190418
0.320116
0.364551
0.362841
0.371109
0.380844
0.188034
0.188528
0.188647
0.188269
0.188146
0.188214
0.187161
0.187059
0.187081
0.187028
0.188446
0.188257
0.189125
0.189805
0.386137
0.187457
0.188188
0.188519
0.187072
0.187122
0.187096
0.187197
0.186182
0.186058
0.185959
0.186028
0.1866
0.188288
0.187901
0.188933
0.189366
0.189173
0.189068
0.188759
0.18717
0.187826
0.188299
0.186642
0.186071
0.186
0.186096
0.186217
0.185388
0.185257
0.185102
0.1851
0.185547
0.18633
0.187838
0.18751
0.188327
0.188241
0.187711
0.186403
0.187558
0.187905
0.18637
0.18559
0.185141
0.185141
0.185293
0.185422
0.184852
0.184742
0.184605
0.18459
0.184895
0.185567
0.186271
0.187546
0.187966
0.189003
0.189008
0.187984
0.187576
0.186308
0.185605
0.184934
0.184627
0.18464
0.184776
0.184885
0.184557
0.184486
0.184412
0.184453
0.184752
0.185369
0.186226
0.187119
0.188361
0.188639
0.188644
0.188377
0.187146
0.186259
0.185404
0.184788
0.184488
0.184444
0.184518
0.184588
0.184428
0.184396
0.184386
0.184493
0.184814
0.185391
0.186149
0.186972
0.187647
0.188044
0.188049
0.187662
0.186996
0.186178
0.185421
0.184846
0.184524
0.184416
0.184426
0.184457
0.184389
0.184377
0.184405
0.184554
0.184901
0.185477
0.186228
0.187031
0.187756
0.188151
0.188156
0.18777
0.187053
0.186254
0.185506
0.184932
0.184584
0.184436
0.184407
0.184415
0.18342
0.183398
0.183421
0.183595
0.184032
0.184786
0.185792
0.186899
0.187896
0.188451
0.188451
0.187898
0.186902
0.185796
0.184791
0.184036
0.1836
0.183426
0.183404
0.183428
0.183442
0.183376
0.183318
0.183393
0.183743
0.184448
0.185426
0.186527
0.187504
0.188075
0.188076
0.187506
0.18653
0.18543
0.184453
0.183748
0.183399
0.183323
0.183382
0.183449
0.18355
0.183404
0.183199
0.1831
0.183316
0.183987
0.185029
0.186141
0.187968
0.188373
0.188374
0.18797
0.186144
0.185034
0.183992
0.183322
0.183106
0.183205
0.18341
0.183557
0.183848
0.183605
0.183228
0.182926
0.183001
0.183636
0.184392
0.18594
0.186575
0.18798
0.187981
0.186578
0.185944
0.184397
0.183642
0.183008
0.182933
0.183235
0.183612
0.183856
0.184443
0.184116
0.18361
0.183171
0.183291
0.183867
0.185831
0.185248
0.185728
0.187279
0.186978
0.188313
0.185254
0.185838
0.183874
0.183299
0.183179
0.183618
0.184125
0.184452
0.185379
0.185008
0.184477
0.184014
0.184084
0.186121
0.185597
0.185699
0.187565
0.187246
0.187034
0.186961
0.188489
0.185606
0.186131
0.184094
0.184025
0.184487
0.185018
0.18539
0.186574
0.186183
0.185733
0.185005
0.186311
0.185872
0.185391
0.187014
0.186981
0.18723
0.187443
0.187467
0.187635
0.186663
0.185885
0.186324
0.185018
0.185746
0.186196
0.186587
0.187857
0.18747
0.18705
0.186786
0.185997
0.186288
0.187352
0.187981
0.305726
0.315286
0.335423
0.187843
0.187298
0.186013
0.186802
0.187065
0.187485
0.187873
0.188991
0.188594
0.189043
0.187617
0.186727
0.188446
0.187707
0.189098
0.234589
0.22925
0.322572
0.279856
0.188186
0.187426
0.187637
0.189063
0.188614
0.18901
0.189622
0.189248
0.189543
0.189135
0.18844
0.188342
0.188271
0.341064
0.235095
0.330958
0.330956
0.331262
0.330631
0.188341
0.187288
0.189161
0.189567
0.189272
0.189645
0.189623
0.189249
0.189544
0.189137
0.188174
0.188179
0.188619
0.3148