/*--------------------------------*- C++ -*----------------------------------*\
  =========                 |
  \\      /  F ield         | OpenFOAM: The Open Source CFD Toolbox
   \\    /   O peration     | Website:  https://openfoam.org
    \\  /    A nd           | Version:  7
     \\/     M anipulation  |
\*---------------------------------------------------------------------------*/
FoamFile
{
    version     2.0;
    format      ascii;
    class       volScalarField;
    location    "0.5";
    object      p;
}
// * * * * * * * * * * * * * * * * * * * * * * * * * * * * * * * * * * * * * //

dimensions      [0 2 -2 0 0 0 0];

internalField   nonuniform List<scalar> 
303246
(
0.165981
0.165785
0.165415
0.164911
0.164322
0.163709
0.163133
0.162646
0.162309
0.162129
0.162129
0.162309
0.162647
0.163133
0.16371
0.164324
0.164912
0.165417
0.165787
0.165983
0.165889
0.165703
0.165351
0.164872
0.164315
0.163734
0.16319
0.162728
0.162404
0.16223
0.16223
0.162404
0.162729
0.163191
0.163735
0.164317
0.164874
0.165353
0.165704
0.165891
0.165732
0.165567
0.165256
0.164835
0.16435
0.163839
0.163365
0.162985
0.162713
0.162548
0.162548
0.162713
0.162985
0.163366
0.16384
0.164351
0.164837
0.165257
0.165568
0.165734
0.165555
0.165427
0.165189
0.164875
0.164521
0.164126
0.163784
0.163377
0.163165
0.163167
0.163167
0.163165
0.163378
0.163785
0.164127
0.164522
0.164876
0.165191
0.165428
0.165557
0.165414
0.165345
0.165227
0.165091
0.16496
0.1648
0.164387
0.164157
0.164076
0.164426
0.164392
0.16436
0.164157
0.164387
0.164801
0.164961
0.165093
0.165229
0.165347
0.165416
0.165362
0.165381
0.165443
0.165565
0.165881
0.165599
0.165396
0.165368
0.166051
0.166996
0.166814
0.166698
0.165457
0.165334
0.1656
0.165882
0.165566
0.165444
0.165383
0.165363
0.165431
0.165579
0.1659
0.166473
0.167238
0.167264
0.167557
0.166825
0.167822
0.177445
0.169509
0.174944
0.167178
0.16689
0.167445
0.167239
0.166474
0.165901
0.16558
0.165433
0.165608
0.165911
0.16661
0.167762
0.169519
0.170663
0.17082
0.168985
0.477477
0.169529
0.171428
0.16952
0.167763
0.166611
0.165912
0.165609
0.165842
0.166333
0.167548
0.169289
0.171574
0.176531
0.180837
0.467004
0.514994
0.496552
0.494307
0.520347
0.179794
0.173697
0.169289
0.167549
0.166333
0.165843
0.165996
0.16659
0.168041
0.170345
0.174093
0.181831
0.20506
0.512949
0.537556
0.537545
0.532768
0.524004
0.198895
0.177114
0.170345
0.168041
0.16659
0.165996
0.165996
0.16659
0.168041
0.170345
0.174545
0.183384
0.206303
0.480515
0.495448
0.537517
0.537533
0.556724
0.512377
0.526559
0.201409
0.177828
0.170345
0.16804
0.166589
0.165995
0.165842
0.166333
0.167548
0.169289
0.173224
0.180353
0.203878
0.495157
0.531848
0.55477
0.558324
0.484282
0.194272
0.175653
0.169288
0.167547
0.166332
0.165841
0.165608
0.165911
0.16661
0.167762
0.169519
0.173171
0.177056
0.521653
0.521177
0.51081
0.484451
0.526693
0.174332
0.169519
0.16776
0.166608
0.165909
0.165606
0.165431
0.165579
0.1659
0.166473
0.167238
0.168594
0.168682
0.168232
0.523798
0.168476
0.168503
0.16724
0.16647
0.165897
0.165576
0.165428
0.165362
0.165381
0.165443
0.165565
0.165881
0.165599
0.166169
0.166137
0.167441
0.174291
0.169228
0.171263
0.166179
0.165632
0.165596
0.165881
0.165562
0.165439
0.165377
0.165358
0.165415
0.165346
0.165228
0.165092
0.16496
0.1648
0.164386
0.164156
0.16491
0.165293
0.165172
0.165028
0.164155
0.164385
0.164798
0.164958
0.165088
0.165223
0.165341
0.16541
0.165556
0.165427
0.16519
0.164875
0.164521
0.164126
0.163784
0.163377
0.163165
0.163166
0.163166
0.163164
0.163375
0.163782
0.164122
0.164517
0.16487
0.165184
0.165422
0.16555
0.165733
0.165567
0.165256
0.164836
0.16435
0.163839
0.163365
0.162985
0.162712
0.162547
0.162546
0.162711
0.162983
0.163363
0.163835
0.164346
0.164831
0.165251
0.165561
0.165727
0.16589
0.165703
0.165352
0.164873
0.164316
0.163734
0.16319
0.162728
0.162404
0.162229
0.162229
0.162402
0.162726
0.163187
0.16373
0.164311
0.164867
0.165346
0.165697
0.165884
0.165981
0.165786
0.165416
0.164911
0.164323
0.163709
0.163133
0.162646
0.162309
0.162128
0.162127
0.162307
0.162644
0.163129
0.163705
0.164318
0.164905
0.16541
0.16578
0.165975
0.162828
0.162759
0.162632
0.162459
0.162262
0.162057
0.161865
0.161702
0.161598
0.161545
0.161545
0.161598
0.161703
0.161866
0.162058
0.162263
0.162461
0.162633
0.162761
0.16283
0.162855
0.162796
0.162687
0.162541
0.162372
0.162194
0.162025
0.161869
0.161766
0.161725
0.161725
0.161766
0.16187
0.162026
0.162195
0.162374
0.162542
0.162689
0.162798
0.162857
0.162922
0.162884
0.162815
0.162723
0.162616
0.162493
0.162361
0.16223
0.162215
0.162164
0.162164
0.162215
0.16223
0.162362
0.162494
0.162617
0.162724
0.162817
0.162886
0.162924
0.163047
0.163044
0.163041
0.163038
0.163037
0.162986
0.162963
0.162844
0.162761
0.162828
0.162828
0.162761
0.162845
0.162964
0.162987
0.163038
0.16304
0.163042
0.163046
0.163049
0.16325
0.163298
0.163394
0.163532
0.163672
0.163805
0.163682
0.163611
0.163607
0.163797
0.163756
0.163819
0.163611
0.163683
0.163807
0.163674
0.163534
0.163396
0.1633
0.163252
0.163541
0.163659
0.163895
0.164212
0.164637
0.164665
0.164938
0.164807
0.164997
0.165401
0.165309
0.165163
0.16478
0.164861
0.164667
0.164639
0.164214
0.163897
0.163661
0.163543
0.163911
0.164127
0.164556
0.16526
0.165922
0.166513
0.166703
0.166133
0.166273
0.167446
0.166956
0.167337
0.166139
0.166153
0.166611
0.165923
0.165262
0.164558
0.164129
0.163913
0.164314
0.164638
0.165317
0.166382
0.167753
0.168919
0.169324
0.16809
0.3709
0.370581
0.386953
0.16848
0.169418
0.167755
0.166384
0.165319
0.164639
0.164315
0.164691
0.165126
0.166131
0.16762
0.169541
0.172704
0.174753
0.303939
0.369193
0.381736
0.403883
0.355115
0.174427
0.171071
0.167622
0.166133
0.165127
0.164692
0.164917
0.16543
0.166613
0.168489
0.171392
0.176347
0.182239
0.392868
0.368877
0.0440763
0.0440804
0.462443
0.393727
0.180867
0.173517
0.168491
0.166614
0.16543
0.164917
0.164917
0.16543
0.166613
0.16849
0.171747
0.177073
0.184076
0.371389
0.38164
0.0440713
0.0440724
0.486872
0.39192
0.395092
0.182422
0.173965
0.16849
0.166614
0.16543
0.164916
0.164691
0.165126
0.166132
0.16762
0.170691
0.174693
0.181485
0.404172
0.460962
0.485321
0.521977
0.394146
0.179442
0.172175
0.16762
0.166131
0.165125
0.16469
0.164314
0.164638
0.165317
0.166382
0.167753
0.170536
0.172925
0.354869
0.390038
0.3908
0.393064
0.399344
0.171069
0.167753
0.166381
0.165316
0.164636
0.164312
0.163912
0.164127
0.164556
0.16526
0.165922
0.167406
0.167534
0.167431
0.393895
0.167004
0.166984
0.165917
0.165257
0.164553
0.164124
0.163908
0.163542
0.163659
0.163896
0.164212
0.164638
0.164665
0.165503
0.165466
0.165982
0.166939
0.166616
0.166675
0.165151
0.164814
0.164649
0.164633
0.164207
0.163891
0.163655
0.163537
0.163251
0.163299
0.163395
0.163533
0.163673
0.163806
0.163682
0.16361
0.164245
0.164459
0.164357
0.164132
0.16361
0.163678
0.163801
0.163668
0.163527
0.163389
0.163294
0.163246
0.163048
0.163044
0.163041
0.163039
0.163037
0.162986
0.162963
0.162844
0.162761
0.162827
0.162827
0.16276
0.162842
0.162959
0.16298
0.163032
0.163033
0.163035
0.163039
0.163042
0.162922
0.162885
0.162815
0.162723
0.162616
0.162494
0.162361
0.16223
0.162214
0.162163
0.162163
0.162213
0.162228
0.162357
0.162489
0.162611
0.162718
0.162809
0.162878
0.162916
0.162856
0.162797
0.162688
0.162541
0.162373
0.162194
0.162025
0.161869
0.161766
0.161724
0.161724
0.161764
0.161867
0.162021
0.16219
0.162367
0.162536
0.162682
0.162791
0.16285
0.162829
0.16276
0.162632
0.16246
0.162262
0.162058
0.161866
0.161702
0.161597
0.161544
0.161544
0.161596
0.1617
0.161862
0.162053
0.162257
0.162454
0.162626
0.162754
0.162823
0.162494
0.16241
0.162254
0.162044
0.161805
0.16156
0.161331
0.161139
0.161015
0.160945
0.160945
0.161016
0.16114
0.161332
0.161561
0.161806
0.162046
0.162255
0.162411
0.162495
0.162498
0.162422
0.162281
0.162091
0.161875
0.161651
0.161437
0.161253
0.161128
0.161064
0.161064
0.161129
0.161254
0.161438
0.161652
0.161877
0.162093
0.162283
0.162424
0.1625
0.162522
0.162462
0.162353
0.162206
0.16204
0.161863
0.161689
0.161515
0.161473
0.161407
0.161407
0.161473
0.161515
0.16169
0.161864
0.162042
0.162208
0.162354
0.162464
0.162524
0.162586
0.162554
0.162497
0.162422
0.162339
0.162236
0.162096
0.161993
0.161876
0.161927
0.161927
0.161876
0.161994
0.162097
0.162237
0.162341
0.162424
0.162499
0.162556
0.162588
0.162712
0.162721
0.162746
0.162783
0.162834
0.162828
0.162802
0.162562
0.162706
0.162801
0.162748
0.162878
0.162563
0.162804
0.16283
0.162836
0.162785
0.162748
0.162723
0.162714
0.162914
0.162981
0.163122
0.163322
0.163544
0.163737
0.163639
0.16364
0.163698
0.163725
0.16367
0.163658
0.163751
0.163641
0.163739
0.163546
0.163324
0.163124
0.162983
0.162916
0.163187
0.163329
0.163636
0.164052
0.164631
0.164958
0.165032
0.164735
0.164551
0.164593
0.16452
0.164598
0.16465
0.164854
0.16496
0.164633
0.164055
0.163638
0.16333
0.163189
0.163495
0.163725
0.164223
0.164972
0.165836
0.166718
0.166962
0.16631
0.34296
0.347632
0.361506
0.166558
0.167059
0.165839
0.164974
0.164225
0.163726
0.163497
0.163789
0.164101
0.164845
0.165832
0.16731
0.169088
0.169884
0.259769
0.297437
0.297512
0.357565
0.326543
0.169865
0.168232
0.165834
0.164847
0.164103
0.16379
0.163957
0.164338
0.165188
0.166513
0.168557
0.171038
0.172965
0.36719
0.296931
0.551994
0.551992
0.386176
0.363469
0.172653
0.169731
0.166515
0.165189
0.164339
0.163958
0.163957
0.164338
0.165188
0.166513
0.168751
0.171444
0.174072
0.347452
0.297596
0.551973
0.551977
0.388598
0.358638
0.372229
0.173485
0.169955
0.166515
0.165189
0.164339
0.163957
0.163789
0.164101
0.164845
0.165832
0.168128
0.170132
0.172632
0.357467
0.385785
0.388105
0.371702
0.36439
0.171957
0.168758
0.165833
0.164845
0.164101
0.163788
0.163496
0.163725
0.164223
0.164972
0.165836
0.167929
0.169066
0.326743
0.35801
0.358738
0.362317
0.369503
0.167919
0.16584
0.16497
0.164222
0.163723
0.163494
0.163188
0.163329
0.163636
0.164053
0.164631
0.164958
0.165814
0.165824
0.371936
0.165359
0.164921
0.164635
0.164047
0.163633
0.163325
0.163184
0.162915
0.162981
0.163123
0.163322
0.163545
0.163737
0.163639
0.164205
0.164388
0.164411
0.164332
0.164334
0.163839
0.163614
0.163717
0.163537
0.163315
0.163117
0.162976
0.16291
0.162713
0.162722
0.162747
0.162784
0.162835
0.162829
0.162803
0.162563
0.16318
0.163226
0.163112
0.162944
0.162564
0.162803
0.162819
0.162828
0.162777
0.162741
0.162716
0.162707
0.162586
0.162554
0.162497
0.162423
0.16234
0.162236
0.162096
0.161994
0.161876
0.161927
0.161927
0.161875
0.161991
0.16209
0.162229
0.162333
0.162416
0.162491
0.162548
0.16258
0.162523
0.162463
0.162353
0.162207
0.162041
0.161864
0.16169
0.161515
0.161473
0.161407
0.161406
0.161472
0.161513
0.161686
0.161858
0.162035
0.162201
0.162347
0.162457
0.162516
0.162499
0.162423
0.162282
0.162092
0.161876
0.161651
0.161437
0.161254
0.161128
0.161063
0.161063
0.161127
0.161251
0.161433
0.161646
0.16187
0.162086
0.162275
0.162416
0.162492
0.162494
0.16241
0.162254
0.162045
0.161806
0.16156
0.161332
0.16114
0.161015
0.160944
0.160943
0.161014
0.161137
0.161328
0.161555
0.1618
0.162039
0.162248
0.162404
0.162488
0.161139
0.161082
0.160978
0.160842
0.160694
0.160548
0.160417
0.160312
0.160254
0.160218
0.160218
0.160254
0.160313
0.160418
0.160549
0.160695
0.160844
0.16098
0.161084
0.161141
0.161162
0.161111
0.161019
0.1609
0.160769
0.16064
0.160518
0.160417
0.160347
0.160318
0.160318
0.160348
0.160418
0.160519
0.160641
0.160771
0.160901
0.161021
0.161113
0.161164
0.16122
0.161182
0.161116
0.161031
0.160941
0.16085
0.160763
0.160652
0.160664
0.160614
0.160614
0.160664
0.160652
0.160764
0.160851
0.160943
0.161033
0.161118
0.161184
0.161222
0.161328
0.161313
0.161289
0.161259
0.161231
0.161196
0.161108
0.161075
0.160959
0.161028
0.161028
0.160959
0.161076
0.161109
0.161197
0.161233
0.161261
0.161291
0.161315
0.16133
0.161503
0.16152
0.16156
0.161614
0.161687
0.161702
0.161738
0.161472
0.161635
0.16169
0.161627
0.161817
0.161473
0.16174
0.161703
0.161689
0.161617
0.161563
0.161522
0.161505
0.161748
0.161809
0.161938
0.162111
0.162287
0.16249
0.162316
0.162376
0.162358
0.162249
0.162185
0.162242
0.16252
0.162318
0.162492
0.16229
0.162114
0.161941
0.161811
0.16175
0.162049
0.162162
0.162414
0.162714
0.16318
0.163306
0.163418
0.163192
0.162968
0.162805
0.162722
0.162843
0.163156
0.163324
0.163309
0.163183
0.162716
0.162417
0.162165
0.162051
0.162367
0.162538
0.162885
0.16347
0.16397
0.164647
0.164721
0.164412
0.315042
0.32045
0.333242
0.164547
0.164859
0.163973
0.163473
0.162888
0.16254
0.162369
0.162656
0.162871
0.163442
0.164075
0.165138
0.166134
0.166446
0.23032
0.25494
0.251504
0.324396
0.296961
0.166531
0.165682
0.164078
0.163444
0.162873
0.162657
0.162816
0.163071
0.163706
0.164613
0.16597
0.167179
0.168073
0.339357
0.254623
0.273174
0.273171
0.326103
0.330421
0.167927
0.166574
0.164616
0.163708
0.163072
0.162818
0.162816
0.163071
0.163706
0.164613
0.166054
0.167386
0.168682
0.320099
0.251718
0.273169
0.273169
0.327798
0.323312
0.34498
0.16836
0.166639
0.164615
0.163707
0.163072
0.162817
0.162656
0.162871
0.163442
0.164076
0.16574
0.166668
0.167903
0.324204
0.325288
0.327261
0.346599
0.332791
0.167516
0.165844
0.164077
0.163442
0.162871
0.162655
0.162367
0.162539
0.162886
0.16347
0.16397
0.165514
0.166066
0.297157
0.324742
0.323604
0.330322
0.339915
0.165255
0.163974
0.163468
0.162884
0.162537
0.162365
0.162049
0.162163
0.162415
0.162714
0.163181
0.163307
0.163975
0.16405
0.344856
0.163616
0.163255
0.163182
0.162707
0.16241
0.162159
0.162046
0.161748
0.161809
0.161939
0.162112
0.162288
0.162491
0.162316
0.162825
0.162899
0.162692
0.162593
0.162652
0.162435
0.162282
0.162464
0.162277
0.162103
0.161933
0.161804
0.161743
0.161504
0.161521
0.161561
0.161615
0.161687
0.161702
0.161739
0.161473
0.161987
0.161948
0.161804
0.161677
0.161475
0.161738
0.161689
0.161679
0.161607
0.161554
0.161515
0.161498
0.161329
0.161314
0.161289
0.16126
0.161232
0.161197
0.161109
0.161076
0.160959
0.161029
0.161029
0.160959
0.161073
0.161102
0.161187
0.161224
0.161252
0.161282
0.161307
0.161323
0.161221
0.161183
0.161117
0.161032
0.160942
0.160851
0.160763
0.160652
0.160664
0.160614
0.160614
0.160663
0.16065
0.160759
0.160844
0.160935
0.161025
0.161109
0.161176
0.161214
0.161163
0.161112
0.16102
0.160901
0.16077
0.160641
0.160519
0.160417
0.160348
0.160318
0.160317
0.160346
0.160415
0.160515
0.160634
0.160764
0.160894
0.161013
0.161105
0.161156
0.16114
0.161083
0.160979
0.160843
0.160694
0.160548
0.160418
0.160313
0.160254
0.160218
0.160218
0.160253
0.16031
0.160414
0.160543
0.160688
0.160836
0.160972
0.161076
0.161133
0.160002
0.159956
0.159875
0.159774
0.159671
0.159579
0.159504
0.159449
0.15943
0.159416
0.159416
0.15943
0.15945
0.159505
0.15958
0.159673
0.159776
0.159877
0.159958
0.160004
0.160027
0.159985
0.159912
0.159821
0.15973
0.159648
0.159575
0.159518
0.159475
0.159472
0.159473
0.159476
0.159519
0.159577
0.159649
0.159732
0.159823
0.159914
0.159987
0.160029
0.160089
0.160056
0.159999
0.159931
0.159868
0.159812
0.159768
0.159688
0.159743
0.159692
0.159692
0.159743
0.159689
0.159769
0.159814
0.15987
0.159933
0.160001
0.160058
0.160091
0.160202
0.160184
0.160155
0.160123
0.1601
0.160083
0.160001
0.160012
0.159887
0.15998
0.15998
0.159887
0.160013
0.160003
0.160085
0.160102
0.160125
0.160158
0.160186
0.160204
0.16038
0.160384
0.160401
0.160424
0.160477
0.160469
0.160548
0.160232
0.160448
0.160508
0.160436
0.160694
0.160233
0.16055
0.160472
0.160479
0.160427
0.160403
0.160386
0.160382
0.160622
0.160656
0.160737
0.160844
0.160942
0.161156
0.160912
0.161019
0.160999
0.160849
0.160772
0.16086
0.161228
0.160915
0.161159
0.160945
0.160847
0.16074
0.160658
0.160625
0.160912
0.160979
0.161151
0.161306
0.161675
0.161656
0.161774
0.161603
0.161438
0.161261
0.161172
0.161314
0.161677
0.161727
0.16166
0.161679
0.161309
0.161154
0.160982
0.160914
0.161208
0.161313
0.16154
0.161921
0.162132
0.16268
0.162666
0.162553
0.284842
0.290277
0.30298
0.162633
0.162841
0.162136
0.161924
0.161543
0.161315
0.16121
0.161475
0.161594
0.162006
0.162327
0.16308
0.163673
0.163791
0.199882
0.224828
0.22071
0.292737
0.266513
0.163941
0.163418
0.162331
0.162009
0.161596
0.161477
0.161622
0.161777
0.162192
0.162761
0.163672
0.164257
0.164767
0.309169
0.22455
0.278263
0.278261
0.291488
0.298208
0.164692
0.16396
0.162765
0.162195
0.161779
0.161623
0.161622
0.161777
0.162192
0.162761
0.163696
0.164351
0.165119
0.289922
0.220887
0.278262
0.278262
0.292868
0.28984
0.314811
0.164904
0.163912
0.162765
0.162194
0.161778
0.161623
0.161475
0.161594
0.162006
0.162327
0.163603
0.163941
0.164683
0.292498
0.290692
0.292396
0.314459
0.300999
0.164409
0.163348
0.162329
0.162007
0.161594
0.161475
0.161208
0.161313
0.161541
0.161921
0.162133
0.163371
0.163649
0.266723
0.292257
0.290148
0.298614
0.309585
0.162933
0.162138
0.161919
0.161539
0.161311
0.161207
0.160912
0.16098
0.161152
0.161307
0.161676
0.161657
0.162163
0.162291
0.314708
0.161837
0.161591
0.161676
0.161297
0.161147
0.160976
0.160908
0.160623
0.160657
0.160738
0.160845
0.160943
0.161157
0.160914
0.161385
0.161452
0.161186
0.161074
0.161138
0.160958
0.160867
0.161121
0.160928
0.160834
0.160731
0.160651
0.160617
0.16038
0.160384
0.160402
0.160425
0.160478
0.160471
0.160549
0.160234
0.160719
0.160647
0.160466
0.160341
0.160238
0.16055
0.160454
0.160468
0.160416
0.160394
0.160378
0.160374
0.160203
0.160185
0.160156
0.160124
0.160101
0.160084
0.160003
0.160013
0.159888
0.159982
0.159982
0.159888
0.16001
0.159994
0.160073
0.160091
0.160115
0.160148
0.160177
0.160196
0.16009
0.160057
0.16
0.159932
0.159869
0.159813
0.159769
0.159689
0.159744
0.159693
0.159693
0.159743
0.159687
0.159764
0.159806
0.159861
0.159924
0.159992
0.160049
0.160083
0.160028
0.159986
0.159913
0.159822
0.159731
0.159649
0.159577
0.159519
0.159476
0.159473
0.159473
0.159474
0.159516
0.159572
0.159642
0.159724
0.159815
0.159905
0.159978
0.160021
0.160003
0.159957
0.159876
0.159775
0.159672
0.15958
0.159505
0.15945
0.159431
0.159417
0.159416
0.159429
0.159447
0.159501
0.159574
0.159665
0.159768
0.159868
0.159949
0.159996
0.158939
0.158897
0.158824
0.158739
0.158662
0.158606
0.158574
0.15856
0.158579
0.158586
0.158586
0.158579
0.158561
0.158575
0.158608
0.158664
0.158741
0.158826
0.158898
0.158941
0.158959
0.158918
0.158847
0.158766
0.158693
0.158639
0.158602
0.158581
0.158564
0.158592
0.158592
0.158565
0.158581
0.158603
0.15864
0.158694
0.158767
0.158849
0.158919
0.158961
0.159011
0.158973
0.158908
0.158835
0.158776
0.158738
0.158724
0.158665
0.158767
0.15872
0.15872
0.158768
0.158666
0.158726
0.15874
0.158778
0.158837
0.15891
0.158975
0.159013
0.159111
0.159079
0.159028
0.158969
0.158928
0.158909
0.15882
0.158867
0.158727
0.15886
0.15886
0.158728
0.158868
0.158821
0.158911
0.15893
0.158971
0.15903
0.159081
0.159113
0.159274
0.159254
0.159229
0.159199
0.159209
0.15916
0.159271
0.158895
0.159168
0.15926
0.159179
0.159525
0.158897
0.159273
0.159162
0.159212
0.159202
0.159232
0.159256
0.159276
0.159501
0.159497
0.159514
0.159536
0.159539
0.159755
0.159429
0.159572
0.159594
0.159438
0.159348
0.159449
0.159894
0.159432
0.159758
0.159542
0.159539
0.159517
0.1595
0.159503
0.159772
0.159786
0.15987
0.159873
0.160151
0.15999
0.1601
0.159978
0.159882
0.159746
0.159667
0.159812
0.160185
0.160098
0.159994
0.160155
0.159876
0.159873
0.159788
0.159774
0.160047
0.160081
0.160182
0.16038
0.16034
0.160791
0.160734
0.160746
0.255672
0.261083
0.273768
0.160796
0.16095
0.160345
0.160384
0.160185
0.160083
0.160049
0.160297
0.160321
0.160597
0.160632
0.161149
0.161518
0.161528
0.170908
0.197546
0.193342
0.264049
0.237297
0.161751
0.161365
0.160637
0.160601
0.160324
0.160299
0.160432
0.160491
0.160728
0.161012
0.161612
0.161853
0.162169
0.279991
0.197259
0.26206
0.262059
0.263629
0.269432
0.162144
0.161697
0.161017
0.160732
0.160494
0.160435
0.160433
0.160491
0.160729
0.161012
0.161596
0.161878
0.162388
0.260751
0.193502
0.262056
0.262053
0.265084
0.260892
0.285601
0.162239
0.161555
0.161016
0.160731
0.160493
0.160434
0.160297
0.160322
0.160598
0.160633
0.161694
0.161642
0.162143
0.263801
0.26286
0.264624
0.285569
0.271695
0.161909
0.161102
0.160636
0.160599
0.160322
0.160297
0.160047
0.160081
0.160182
0.16038
0.160341
0.161441
0.161565
0.237508
0.263355
0.261189
0.269413
0.280368
0.160806
0.16035
0.160379
0.160181
0.160079
0.160046
0.159772
0.159786
0.159871
0.159874
0.160152
0.159991
0.1604
0.160558
0.285477
0.160038
0.15991
0.160154
0.159863
0.159866
0.159782
0.159768
0.159501
0.159498
0.159515
0.159537
0.15954
0.159757
0.159431
0.159894
0.159996
0.159708
0.159589
0.159631
0.159396
0.159367
0.159711
0.159521
0.159524
0.159507
0.159492
0.159495
0.159275
0.159255
0.15923
0.1592
0.159211
0.159161
0.159273
0.158898
0.159377
0.159292
0.15906
0.158906
0.158906
0.159276
0.159142
0.159199
0.159189
0.159222
0.159247
0.159268
0.159112
0.15908
0.159029
0.15897
0.158929
0.158911
0.158822
0.158869
0.15873
0.158863
0.158863
0.15873
0.158866
0.158811
0.158898
0.158918
0.15896
0.15902
0.159072
0.159105
0.159012
0.158974
0.15891
0.158837
0.158778
0.15874
0.158726
0.158667
0.158769
0.158721
0.158721
0.158768
0.158665
0.15872
0.158731
0.158769
0.158828
0.158901
0.158966
0.159004
0.15896
0.158919
0.158848
0.158767
0.158694
0.158641
0.158604
0.158582
0.158566
0.158593
0.158592
0.158564
0.158579
0.158598
0.158633
0.158686
0.158758
0.15884
0.15891
0.158952
0.15894
0.158898
0.158825
0.158741
0.158664
0.158608
0.158576
0.158562
0.15858
0.158587
0.158586
0.158578
0.158559
0.158571
0.158601
0.158656
0.158733
0.158817
0.158889
0.158932
0.157993
0.157946
0.15787
0.157785
0.157716
0.157682
0.157682
0.157704
0.157756
0.157778
0.157778
0.157756
0.157705
0.157683
0.157683
0.157718
0.157786
0.157871
0.157948
0.157995
0.158
0.157951
0.157869
0.157777
0.157703
0.157661
0.157646
0.157655
0.157656
0.157682
0.157682
0.157656
0.157656
0.157647
0.157663
0.157704
0.157779
0.157871
0.157953
0.158002
0.158031
0.157977
0.157887
0.157786
0.157706
0.157665
0.157669
0.157626
0.15778
0.157725
0.157725
0.157781
0.157627
0.15767
0.157667
0.157708
0.157787
0.157889
0.157979
0.158033
0.158103
0.158045
0.157949
0.157834
0.157743
0.157698
0.157572
0.157649
0.157482
0.15767
0.157671
0.157483
0.15765
0.157574
0.1577
0.157745
0.157836
0.157951
0.158047
0.158106
0.158238
0.158179
0.158087
0.157968
0.157901
0.157771
0.157912
0.157442
0.157785
0.157932
0.157836
0.158308
0.157444
0.157914
0.157774
0.157903
0.15797
0.158089
0.158181
0.15824
0.158439
0.158384
0.158311
0.15821
0.158074
0.158296
0.157862
0.15801
0.158107
0.157954
0.157848
0.157959
0.158507
0.157865
0.158299
0.158077
0.158213
0.158314
0.158386
0.158442
0.158689
0.158634
0.15861
0.158418
0.158598
0.158286
0.158354
0.158276
0.158242
0.158158
0.158101
0.158244
0.158639
0.158407
0.158291
0.158603
0.158422
0.158613
0.158637
0.158692
0.158947
0.158897
0.158859
0.158845
0.158546
0.158918
0.158824
0.158931
0.227661
0.23308
0.245733
0.158972
0.159101
0.158552
0.15885
0.158862
0.1589
0.15895
0.159185
0.159102
0.159254
0.158971
0.159288
0.159515
0.159425
0.143041
0.170776
0.166646
0.23656
0.209243
0.159739
0.159423
0.158977
0.159258
0.159105
0.159188
0.159311
0.159242
0.159333
0.15934
0.159697
0.159704
0.159885
0.25197
0.170488
0.239133
0.239131
0.237059
0.241963
0.159905
0.159612
0.159346
0.159338
0.159246
0.159313
0.159311
0.159243
0.159333
0.15934
0.15965
0.159679
0.160034
0.232764
0.166802
0.239126
0.239123
0.238778
0.23346
0.25759
0.159927
0.159371
0.159346
0.159337
0.159245
0.159313
0.159186
0.159102
0.159254
0.158972
0.159941
0.159553
0.159899
0.236311
0.236309
0.238327
0.258326
0.243809
0.159673
0.158944
0.158976
0.159256
0.159104
0.159186
0.158947
0.158898
0.158859
0.158846
0.158547
0.159643
0.159631
0.209451
0.235793
0.233746
0.241597
0.252296
0.158729
0.158561
0.158845
0.158859
0.158896
0.158946
0.15869
0.158635
0.158611
0.158419
0.1586
0.158288
0.158625
0.158801
0.257441
0.158158
0.158186
0.158606
0.158408
0.158606
0.158631
0.158686
0.15844
0.158385
0.158312
0.158211
0.158075
0.158298
0.157865
0.158323
0.15847
0.158166
0.158038
0.158043
0.157703
0.157776
0.158242
0.158053
0.158197
0.158303
0.158378
0.158434
0.158239
0.15818
0.158088
0.157969
0.157902
0.157773
0.157914
0.157445
0.157943
0.157838
0.157534
0.157317
0.157458
0.157922
0.15775
0.157889
0.157957
0.158078
0.158172
0.158231
0.158104
0.158046
0.15795
0.157836
0.157744
0.1577
0.157574
0.157651
0.157486
0.157675
0.157675
0.157486
0.157648
0.157563
0.157685
0.157732
0.157825
0.15794
0.158038
0.158096
0.158032
0.157978
0.157888
0.157787
0.157708
0.157667
0.157671
0.157628
0.157783
0.157727
0.157727
0.157782
0.157626
0.157665
0.157657
0.157698
0.157777
0.157879
0.157969
0.158023
0.158001
0.157953
0.15787
0.157779
0.157704
0.157663
0.157648
0.157656
0.157658
0.157684
0.157683
0.157656
0.157653
0.157642
0.157655
0.157695
0.15777
0.157862
0.157943
0.157993
0.157994
0.157947
0.157871
0.157786
0.157718
0.157683
0.157683
0.157705
0.157758
0.157779
0.157779
0.157756
0.157702
0.157678
0.157676
0.15771
0.157777
0.157862
0.157939
0.157985
0.157184
0.157129
0.157039
0.156943
0.156873
0.156852
0.156881
0.156938
0.157031
0.157076
0.157076
0.157031
0.156939
0.156882
0.156854
0.156874
0.156944
0.157041
0.157131
0.157186
0.157175
0.157112
0.157007
0.15689
0.156798
0.156757
0.156757
0.156792
0.156815
0.156867
0.156867
0.156816
0.156793
0.156758
0.156759
0.1568
0.156891
0.157008
0.157114
0.157177
0.157176
0.157098
0.156966
0.156813
0.15669
0.156626
0.15664
0.156601
0.156832
0.156771
0.156771
0.156833
0.156602
0.156642
0.156628
0.156691
0.156815
0.156968
0.157101
0.157178
0.157213
0.157117
0.156951
0.156748
0.156569
0.156474
0.156282
0.156372
0.156144
0.156405
0.156406
0.156145
0.156373
0.156284
0.156476
0.156572
0.15675
0.156953
0.157119
0.157215
0.157313
0.157199
0.157007
0.156755
0.156565
0.156301
0.156449
0.155826
0.156267
0.156496
0.156376
0.157032
0.155828
0.156452
0.156304
0.156567
0.156758
0.15701
0.157201
0.157315
0.157488
0.157361
0.157159
0.15689
0.156543
0.156749
0.156164
0.156285
0.156485
0.156332
0.156201
0.156326
0.157038
0.156167
0.156753
0.156546
0.156894
0.157162
0.157363
0.157491
0.157722
0.157576
0.15741
0.156962
0.156988
0.156488
0.156453
0.156418
0.156439
0.15641
0.15638
0.156527
0.156975
0.156581
0.156493
0.156992
0.156966
0.157413
0.157579
0.157725
0.15797
0.157814
0.157597
0.15732
0.156677
0.156971
0.156823
0.157015
0.200229
0.205666
0.218282
0.157061
0.157194
0.156683
0.157325
0.157601
0.157817
0.157973
0.158212
0.157999
0.158016
0.157312
0.157418
0.157534
0.157307
0.115695
0.144155
0.140142
0.209503
0.18176
0.157742
0.157498
0.157319
0.158021
0.158003
0.158215
0.158339
0.15814
0.158059
0.157708
0.157838
0.157627
0.157668
0.224534
0.143867
0.214754
0.214752
0.210713
0.214917
0.157747
0.157553
0.157716
0.158064
0.158144
0.158342
0.158339
0.158141
0.158059
0.157709
0.157754
0.157556
0.157789
0.205361
0.140312
0.214747
0.214744
0.212798
0.206544
0.230169
0.157706
0.157189
0.157716
0.158064
0.158143
0.158341
0.158212
0.157999
0.158016
0.157313
0.158276
0.15751
0.157732
0.209252
0.209984
0.212347
0.231721
0.21649
0.157479
0.15671
0.157319
0.15802
0.158001
0.158213
0.157971
0.157815
0.157598
0.157321
0.156678
0.157888
0.157705
0.18197
0.208714
0.206799
0.214335
0.224803
0.156545
0.1567
0.157321
0.157599
0.157814
0.157969
0.157723
0.157577
0.157411
0.156963
0.156989
0.15649
0.156743
0.156933
0.230015
0.156084
0.156354
0.157005
0.15695
0.157406
0.157573
0.157719
0.157489
0.157361
0.15716
0.156892
0.156544
0.156751
0.156167
0.156611
0.156807
0.156473
0.156326
0.156283
0.155783
0.15604
0.156684
0.156519
0.156875
0.157151
0.157354
0.157483
0.157314
0.1572
0.157008
0.156756
0.156566
0.156303
0.156452
0.15583
0.15638
0.156224
0.155812
0.155485
0.155849
0.156469
0.156277
0.156552
0.156743
0.156998
0.157191
0.157307
0.157214
0.157118
0.156952
0.15675
0.156571
0.156476
0.156285
0.156375
0.156148
0.156411
0.156411
0.15615
0.156373
0.156271
0.156459
0.156557
0.156738
0.156942
0.157109
0.157206
0.157177
0.157099
0.156967
0.156815
0.156691
0.156628
0.156642
0.156604
0.156835
0.156774
0.156774
0.156835
0.156602
0.156637
0.156617
0.156681
0.156804
0.156957
0.15709
0.157169
0.157176
0.157113
0.157008
0.156891
0.1568
0.156759
0.156759
0.156794
0.156818
0.156869
0.156869
0.156816
0.156791
0.156754
0.156751
0.15679
0.156882
0.156999
0.157104
0.157167
0.157185
0.15713
0.15704
0.156944
0.156874
0.156854
0.156883
0.15694
0.157033
0.157077
0.157077
0.157031
0.156937
0.156878
0.156847
0.156866
0.156935
0.157031
0.157121
0.157175
0.156542
0.156476
0.15637
0.15626
0.156187
0.156185
0.156253
0.156359
0.156506
0.156581
0.156581
0.156506
0.15636
0.156254
0.156186
0.156188
0.156261
0.156372
0.156478
0.156544
0.156515
0.156434
0.156299
0.156148
0.156032
0.155988
0.156005
0.156066
0.156127
0.156212
0.156212
0.156128
0.156067
0.156006
0.155989
0.156033
0.15615
0.156301
0.156436
0.156517
0.156486
0.156376
0.156187
0.155964
0.155774
0.155671
0.155689
0.155615
0.156003
0.155947
0.155947
0.156004
0.155616
0.15569
0.155673
0.155776
0.155966
0.156189
0.156378
0.156488
0.156488
0.156339
0.156079
0.155753
0.155443
0.155264
0.154978
0.155039
0.154727
0.155064
0.155064
0.154727
0.15504
0.15498
0.155266
0.155445
0.155755
0.15608
0.156341
0.15649
0.156556
0.156366
0.156038
0.155595
0.155224
0.154734
0.15485
0.153974
0.154563
0.154908
0.154749
0.155681
0.153976
0.154853
0.154736
0.155226
0.155598
0.15604
0.156369
0.156558
0.156716
0.156489
0.15611
0.155603
0.154927
0.15505
0.154263
0.154301
0.154648
0.154478
0.15431
0.15446
0.155433
0.154266
0.155053
0.154931
0.155606
0.156113
0.156491
0.156718
0.15695
0.156681
0.156317
0.155525
0.155275
0.154514
0.154256
0.154281
0.15435
0.154374
0.154379
0.154537
0.155092
0.154497
0.154519
0.15528
0.155529
0.156321
0.156684
0.156953
0.157211
0.156905
0.156424
0.155793
0.154639
0.154829
0.154588
0.154859
0.172851
0.178316
0.190888
0.154924
0.155103
0.154645
0.155798
0.156428
0.156908
0.157214
0.157477
0.157094
0.156958
0.15565
0.155456
0.155445
0.155002
0.0883725
0.117662
0.11382
0.18248
0.154291
0.155608
0.155481
0.155657
0.156963
0.157098
0.15748
0.157618
0.15725
0.156982
0.15609
0.155944
0.155459
0.155314
0.197159
0.11737
0.190791
0.190791
0.184419
0.187909
0.155467
0.155371
0.156098
0.156988
0.157254
0.157622
0.157619
0.15725
0.156982
0.15609
0.155812
0.155336